# vtk DataFile Version 1.0
 Mesh produced by HydroAlgorithmics' AlgoMesh 2.0.15.
ASCII
 
DATASET UNSTRUCTURED_GRID
POINTS 22320 DOUBLE
224765.647972662 5869.833249089 0.000000000
224717.348511122 6357.946637026 0.000000000
224367.341331622 6491.474423438 0.000000000
224195.596513133 6459.269522728 0.000000000
224111.883445048 6344.363287695 0.000000000
224236.886151615 5877.004516038 0.000000000
224765.647972662 5869.833249089 0.000000000
224717.348511122 6357.946637026 0.000000000
224367.341331622 6491.474423438 0.000000000
224195.596513133 6459.269522728 0.000000000
224111.883445048 6344.363287695 0.000000000
224236.886151615 5877.004516038 0.000000000
223910.445053653 5682.982335817 0.000000000
224236.886151615 5877.004516038 0.000000000
224111.883445048 6344.363287695 0.000000000
223839.118612470 6330.657214105 0.000000000
223635.378142946 5944.796375721 0.000000000
223910.445053653 5682.982335817 0.000000000
224236.886151615 5877.004516038 0.000000000
224111.883445048 6344.363287695 0.000000000
223839.118612470 6330.657214105 0.000000000
223635.378142946 5944.796375721 0.000000000
224848.808726400 5790.275470840 0.000000000
224765.647972662 5869.833249089 0.000000000
224717.348511122 6357.946637026 0.000000000
224845.005465407 6556.844526610 0.000000000
225174.909421201 6554.074946088 0.000000000
225413.386998014 6405.153708345 0.000000000
225340.062809940 5877.940891232 0.000000000
224848.808726400 5790.275470840 0.000000000
224765.647972662 5869.833249089 0.000000000
224717.348511122 6357.946637026 0.000000000
224845.005465407 6556.844526610 0.000000000
225174.909421201 6554.074946088 0.000000000
225413.386998014 6405.153708345 0.000000000
225340.062809940 5877.940891232 0.000000000
225340.062809940 5877.940891232 0.000000000
226162.085038893 5477.835018111 0.000000000
226290.697656107 6126.526279976 0.000000000
225863.109987554 6504.361506962 0.000000000
225616.333259517 6541.790604269 0.000000000
225413.386998014 6405.153708345 0.000000000
225340.062809940 5877.940891232 0.000000000
226162.085038893 5477.835018111 0.000000000
226290.697656107 6126.526279976 0.000000000
225863.109987554 6504.361506962 0.000000000
225616.333259517 6541.790604269 0.000000000
225413.386998014 6405.153708345 0.000000000
223635.378142946 5944.796375721 0.000000000
223839.118612470 6330.657214105 0.000000000
223735.794987193 6492.712109755 0.000000000
223549.320112743 6543.646625365 0.000000000
223519.439356873 6533.401272762 0.000000000
223286.764534180 6204.777846378 0.000000000
223276.245648756 6021.679832378 0.000000000
223635.378142946 5944.796375721 0.000000000
223839.118612470 6330.657214105 0.000000000
223735.794987193 6492.712109755 0.000000000
223549.320112743 6543.646625365 0.000000000
223519.439356873 6533.401272762 0.000000000
223286.764534180 6204.777846378 0.000000000
223276.245648756 6021.679832378 0.000000000
223549.320112743 6543.646625365 0.000000000
223519.439356873 6533.401272762 0.000000000
223329.638465031 6692.442816182 0.000000000
223369.146440626 6837.827237641 0.000000000
223480.235495917 6884.146785880 0.000000000
223601.715905002 6789.603044063 0.000000000
223549.320112743 6543.646625365 0.000000000
223519.439356873 6533.401272762 0.000000000
223329.638465031 6692.442816182 0.000000000
223369.146440626 6837.827237641 0.000000000
223480.235495917 6884.146785880 0.000000000
223601.715905002 6789.603044063 0.000000000
225863.109987554 6504.361506962 0.000000000
225958.839892276 6825.526165346 0.000000000
226067.352221780 6896.223914332 0.000000000
226226.447721823 6874.220000377 0.000000000
226458.093363562 6645.612821893 0.000000000
226504.769580264 6360.280687422 0.000000000
226290.697656107 6126.526279976 0.000000000
225863.109987554 6504.361506962 0.000000000
225958.839892276 6825.526165346 0.000000000
226067.352221780 6896.223914332 0.000000000
226226.447721823 6874.220000377 0.000000000
226458.093363562 6645.612821893 0.000000000
226504.769580264 6360.280687422 0.000000000
226290.697656107 6126.526279976 0.000000000
225722.881377959 7001.765885387 0.000000000
225891.692086604 7142.900039861 0.000000000
226022.025729234 7098.915252956 0.000000000
226067.352221780 6896.223914332 0.000000000
225958.839892276 6825.526165346 0.000000000
225722.881377959 7001.765885387 0.000000000
225891.692086604 7142.900039861 0.000000000
226022.025729234 7098.915252956 0.000000000
226067.352221780 6896.223914332 0.000000000
225958.839892276 6825.526165346 0.000000000
225616.333259517 6541.790604269 0.000000000
225583.859259214 6686.320531276 0.000000000
225682.167751154 6980.536453684 0.000000000
225714.410783370 7001.533653088 0.000000000
225722.881377959 7001.765885387 0.000000000
225958.839892276 6825.526165346 0.000000000
225863.109987554 6504.361506962 0.000000000
225616.333259517 6541.790604269 0.000000000
225583.859259214 6686.320531276 0.000000000
225682.167751154 6980.536453684 0.000000000
225714.410783370 7001.533653088 0.000000000
225722.881377959 7001.765885387 0.000000000
225958.839892276 6825.526165346 0.000000000
225863.109987554 6504.361506962 0.000000000
223735.794987193 6492.712109755 0.000000000
223908.053548772 6726.544112909 0.000000000
223724.432953287 6850.097123559 0.000000000
223601.715905002 6789.603044063 0.000000000
223549.320112743 6543.646625365 0.000000000
223735.794987193 6492.712109755 0.000000000
223908.053548772 6726.544112909 0.000000000
223724.432953287 6850.097123559 0.000000000
223601.715905002 6789.603044063 0.000000000
223549.320112743 6543.646625365 0.000000000
223735.794987193 6492.712109755 0.000000000
223908.053548772 6726.544112909 0.000000000
223953.638130467 6736.581926712 0.000000000
224054.406620837 6701.719326649 0.000000000
224195.596513133 6459.269522728 0.000000000
224111.883445048 6344.363287695 0.000000000
223839.118612470 6330.657214105 0.000000000
223735.794987193 6492.712109755 0.000000000
223908.053548772 6726.544112909 0.000000000
223953.638130467 6736.581926712 0.000000000
224054.406620837 6701.719326649 0.000000000
224195.596513133 6459.269522728 0.000000000
224111.883445048 6344.363287695 0.000000000
223839.118612470 6330.657214105 0.000000000
224195.596513133 6459.269522728 0.000000000
224054.406620837 6701.719326649 0.000000000
224245.023864966 6892.648024860 0.000000000
224392.911625103 6776.262731453 0.000000000
224367.341331622 6491.474423438 0.000000000
224195.596513133 6459.269522728 0.000000000
224054.406620837 6701.719326649 0.000000000
224245.023864966 6892.648024860 0.000000000
224392.911625103 6776.262731453 0.000000000
224367.341331622 6491.474423438 0.000000000
224367.341331622 6491.474423438 0.000000000
224717.348511122 6357.946637026 0.000000000
224845.005465407 6556.844526610 0.000000000
224825.110375470 6674.916451337 0.000000000
224687.565119153 6795.734427505 0.000000000
224500.351516126 6822.608328333 0.000000000
224392.911625103 6776.262731453 0.000000000
224367.341331622 6491.474423438 0.000000000
224717.348511122 6357.946637026 0.000000000
224845.005465407 6556.844526610 0.000000000
224825.110375470 6674.916451337 0.000000000
224687.565119153 6795.734427505 0.000000000
224500.351516126 6822.608328333 0.000000000
224392.911625103 6776.262731453 0.000000000
224845.005465407 6556.844526610 0.000000000
224825.110375470 6674.916451337 0.000000000
224918.043006852 6847.668834315 0.000000000
225097.357543899 6930.207481036 0.000000000
225271.327049089 6885.251925768 0.000000000
225174.909421201 6554.074946088 0.000000000
224845.005465407 6556.844526610 0.000000000
224825.110375470 6674.916451337 0.000000000
224918.043006852 6847.668834315 0.000000000
225097.357543899 6930.207481036 0.000000000
225271.327049089 6885.251925768 0.000000000
225174.909421201 6554.074946088 0.000000000
225616.333259517 6541.790604269 0.000000000
225413.386998014 6405.153708345 0.000000000
225174.909421201 6554.074946088 0.000000000
225271.327049089 6885.251925768 0.000000000
225311.997507195 6908.393028088 0.000000000
225317.905318411 6908.200871481 0.000000000
225583.859259214 6686.320531276 0.000000000
225616.333259517 6541.790604269 0.000000000
225413.386998014 6405.153708345 0.000000000
225174.909421201 6554.074946088 0.000000000
225271.327049089 6885.251925768 0.000000000
225311.997507195 6908.393028088 0.000000000
225317.905318411 6908.200871481 0.000000000
225583.859259214 6686.320531276 0.000000000
225317.905318411 6908.200871481 0.000000000
225484.522352485 7029.752352054 0.000000000
225682.167751154 6980.536453684 0.000000000
225583.859259214 6686.320531276 0.000000000
225317.905318411 6908.200871481 0.000000000
225484.522352485 7029.752352054 0.000000000
225682.167751154 6980.536453684 0.000000000
225583.859259214 6686.320531276 0.000000000
226458.093363562 6645.612821893 0.000000000
226600.894828670 6962.358218773 0.000000000
226714.262402491 7039.489106923 0.000000000
226879.821680800 7042.393300919 0.000000000
227010.842440319 6934.892010167 0.000000000
226946.475224843 6426.565837897 0.000000000
226504.769580264 6360.280687422 0.000000000
226458.093363562 6645.612821893 0.000000000
226600.894828670 6962.358218773 0.000000000
226714.262402491 7039.489106923 0.000000000
226879.821680800 7042.393300919 0.000000000
227010.842440319 6934.892010167 0.000000000
226946.475224843 6426.565837897 0.000000000
226504.769580264 6360.280687422 0.000000000
227718.035646486 7125.552801903 0.000000000
227652.664210184 7264.756963038 0.000000000
227353.575717561 7370.876285531 0.000000000
227241.105585318 7245.396323564 0.000000000
227229.607269080 7008.003140230 0.000000000
227436.171056806 6915.924390346 0.000000000
227718.035646486 7125.552801903 0.000000000
227652.664210184 7264.756963038 0.000000000
227353.575717561 7370.876285531 0.000000000
227241.105585318 7245.396323564 0.000000000
227229.607269080 7008.003140230 0.000000000
227436.171056806 6915.924390346 0.000000000
227114.555441980 6355.331066396 0.000000000
226946.475224843 6426.565837897 0.000000000
227010.842440319 6934.892010167 0.000000000
227229.607269080 7008.003140230 0.000000000
[...]
CELL_DATA 1861
SCALARS LAYER  int  1
LOOKUP_TABLE default
1
1
1
1
1
1
1
1
1
1
1
1
1
1
1
1
1
1
1
1
1
1
1
1
1
1
1
1
1
1
1
1
1
1
1
1
1
1
1
1
1
1
1
1
1
1
1
1
1
1
1
1
1
1
1
1
1
1
1
1
1
1
1
1
1
1
1
1
1
1
1
1
1
1
1
1
1
1
1
1
1
1
1
1
1
1
1
1
1
1
1
1
1
1
1
1
1
1
1
1
1
1
1
1
1
1
1
1
1
1
1
1
1
1
1
1
1
1
1
1
1
1
1
1
1
1
1
1
1
1
1
1
1
1
1
1
1
1
1
1
1
1
1
1
1
1
1
1
1
1
1
1
1
1
1
1
1
1
1
1
1
1
1
1
1
1
1
1
1
1
1
1
1
1
1
1
1
1
1
1
1
1
1
1
1
1
1
1
1
1
1
1
1
1
1
1
1
1
1
1
1
1
1
1
1
1
1
1
1
1
1
1
1
1
1
1
1
1
1
1
1
1
1
1
1
1
1
1
1
1
1
1
1
1
1
1
1
1
1
1
1
1
1
1
1
1
1
1
1
1
1
1
1
1
1
1
1
1
1
1
1
1
1
1
1
1
1
1
1
1
1
1
1
1
1
1
1
1
1
1
1
1
1
1
1
1
1
1
1
1
1
1
1
1
1
1
1
1
1
1
1
1
1
1
1
1
1
1
1
1
1
1
1
1
1
1
1
1
1
1
1
1
1
1
1
1
1
1
1
1
1
1
1
1
1
1
1
1
1
1
1
1
1
1
1
1
1
1
1
1
1
1
1
1
1
1
1
1
1
1
1
1
1
1
1
1
1
1
1
1
1
1
1
1
1
1
1
1
1
1
1
1
1
1
1
1
1
1
1
1
1
1
1
1
1
1
1
1
1
1
1
1
1
1
1
1
1
1
1
1
1
1
1
1
1
1
1
1
1
1
1
1
1
1
1
1
1
1
1
1
1
1
1
1
1
1
1
1
1
1
1
1
1
1
1
1
1
1
1
1
1
1
1
1
1
1
1
1
1
1
1
1
1
1
1
1
1
1
1
1
1
1
1
1
1
1
1
1
1
1
1
1
1
1
1
1
1
1
1
1
1
1
1
1
1
1
1
1
1
1
1
1
1
1
1
1
1
1
1
1
1
1
1
1
1
1
1
1
1
1
1
1
1
1
1
1
1
1
1
1
1
1
1
1
1
1
1
1
1
1
1
1
1
1
1
1
1
1
1
1
1
1
1
1
1
1
1
1
1
1
1
1
1
1
1
1
1
1
1
1
1
1
1
1
1
1
1
1
1
1
1
1
1
1
1
1
1
1
1
1
1
1
1
1
1
1
1
1
1
1
1
1
1
1
1
1
1
1
1
1
1
1
1
1
1
1
1
1
1
1
1
1
1
1
1
1
1
1
1
1
1
1
1
1
1
1
1
1
1
1
1
1
1
1
1
1
1
1
1
1
1
1
1
1
1
1
1
1
1
1
1
1
1
1
1
1
1
1
1
1
1
1
1
1
1
1
1
1
1
1
1
1
1
1
1
1
1
1
1
1
1
1
1
1
1
1
1
1
1
1
1
1
1
1
1
1
1
1
1
1
1
1
1
1
1
1
1
1
1
1
1
1
1
1
1
1
1
1
1
1
1
1
1
1
1
1
1
1
1
1
1
1
1
1
1
1
1
1
1
1
1
1
1
1
1
1
1
1
1
1
1
1
1
1
1
1
1
1
1
1
1
1
1
1
1
1
1
1
1
1
1
1
1
1
1
1
1
1
1
1
1
1
1
1
1
1
1
1
1
1
1
1
1
1
1
1
1
1
1
1
1
1
1
1
1
1
1
1
1
1
1
1
1
1
1
1
1
1
1
1
1
1
1
1
1
1
1
1
1
1
1
1
1
1
1
1
1
1
1
1
1
1
1
1
1
1
1
1
1
1
1
1
1
1
1
1
1
1
1
1
1
1
1
1
1
1
1
1
1
1
1
1
1
1
1
1
1
1
1
1
1
1
1
1
1
1
1
1
1
1
1
1
1
1
1
1
1
1
1
1
1
1
1
1
1
1
1
1
1
1
1
1
1
1
1
1
1
1
1
1
1
1
1
1
1
1
1
1
1
1
1
1
1
1
1
1
1
1
1
1
1
1
1
1
1
1
1
1
1
1
1
1
1
1
1
1
1
1
1
1
1
1
1
1
1
1
1
1
1
1
1
1
1
1
1
1
1
1
1
1
1
1
1
1
1
1
1
1
1
1
1
1
1
1
1
1
1
1
1
1
1
1
1
1
1
1
1
1
1
1
1
1
1
1
1
1
1
1
1
1
1
1
1
1
1
1
1
1
1
1
1
1
1
1
1
1
1
1
1
1
1
1
1
1
1
1
1
1
1
1
1
1
1
1
1
1
1
1
1
1
1
1
1
1
1
1
1
1
1
1
1
1
1
1
1
1
1
1
1
1
1
1
1
1
1
1
1
1
1
1
1
1
1
1
1
1
1
1
1
1
1
1
1
1
1
1
1
1
1
1
1
1
1
1
1
1
1
1
1
1
1
1
1
1
1
1
1
1
1
1
1
1
1
1
1
1
1
1
1
1
1
1
1
1
1
1
1
1
1
1
1
1
1
1
1
1
1
1
1
1
1
1
1
1
1
1
1
1
1
1
1
1
1
1
1
1
1
1
1
1
1
1
1
1
1
1
1
1
1
1
1
1
1
1
1
1
1
1
1
1
1
1
1
1
1
1
1
1
1
1
1
1
1
1
1
1
1
1
1
1
1
1
1
1
1
1
1
1
1
1
1
1
1
1
1
1
1
1
1
1
1
1
1
1
1
1
1
1
1
1
1
1
1
1
1
1
1
1
1
1
1
1
1
1
1
1
1
1
1
1
1
1
1
1
1
1
1
1
1
1
1
1
1
1
1
1
1
1
1
1
1
1
1
1
1
1
1
1
1
1
1
1
1
1
1
1
1
1
1
1
1
1
1
1
1
1
1
1
1
1
1
1
1
1
1
1
1
1
1
1
1
1
1
1
1
1
1
1
1
1
1
1
1
1
1
1
1
1
1
1
1
1
1
1
1
1
1
1
1
1
1
1
1
1
1
1
1
1
1
1
1
1
1
1
1
1
1
1
1
1
1
1
1
1
1
1
1
1
1
1
1
1
1
1
1
1
1
1
1
1
1
1
1
1
1
1
1
1
1
1
1
1
1
1
1
1
1
1
1
1
1
1
1
1
1
1
1
1
1
1
1
1
1
1
1
1
1
1
1
1
1
1
1
1
1
1
1
1
1
1
1
1
1
1
1
1
1
1
1
1
1
1
1
1
1
1
1
1
1
1
1
1
1
1
1
1
1
1
1
1
1
1
1
1
1
1
1
1
1
1
1
1
1
1
1
1
1
1
1
1
1
1
1
1
1
1
1
1
1
1
1
1
1
1
1
1
1
1
1
1
1
1
1
1
1
1
1
1
1
1
1
1
1
1
1
1
1
1
1
1
1
1
1
1
1
1
1
1
1
1
1
1
1
1
1
1
1
1
1
1
1
1
1
1
1
1
1
1
1
1
1
1
1
1
1
1
1
1
1
1
1
1
1
1
1
1
1
1
1
1
1
1
1
1
1
1
1
1
1
1
1
1
1
1
1
1
1
1
1
1
1
1
1
1
1
1
1
1
1
1
1
1
1
1
1
1
1
1
1
1
1
1
1
1
1
1
1
1
1
1
1
1
1
1
1
1
1
1
1
1
1
1
1
1
1
1
1
1
1
1
1
1
1
1
1
1
1
1
1
1
1
1
1
1
1
1
1
1
1
1
1
1
1
1
1
1
1
1
1
1
1
1
1
1
1
1
1
1
1
1
1
1
1
1
1
1
1
1
1
1
1
1
1
1
1
1
1
1
1
1
1
1
1
1
1
1
1
1
1
1
1
1
1
1
1
1
1
1
1
1
1
1
1
1
1
1
1
1
1
1
1
1
1
1
1
1
1
1
1
1
1
1
1
1
1
1
1
1
1
1
1
1
1
1
1
1
1
1
1
1
1
1
1
1
1
1
1
1
1
1
1
1
1
1
1
1
1
1
1
1
1
1
1
1
1
1
1
1
1
1
1
1
1
1
1
1
1
1
1
1
1
1
1
1
1
1
1
1
1
1
1
1
1
1
1
1
1
1
1
1
1
1
1
1
1
1
1
1
1
1
1
SCALARS 2D_MESH_CELL_INDEX  int  1
LOOKUP_TABLE default
1
2
3
4
5
6
7
8
9
10
11
12
13
14
15
16
17
18
19
20
21
22
23
24
25
26
27
28
29
30
31
32
33
34
35
36
37
38
39
40
41
42
43
44
45
46
47
48
49
50
51
52
53
54
55
56
57
58
59
60
61
62
63
64
65
66
67
68
69
70
71
72
73
74
75
76
77
78
79
80
81
82
83
84
85
86
87
88
89
90
91
92
93
94
95
96
97
98
99
100
101
102
103
104
105
106
107
108
109
110
111
112
113
114
115
116
117
118
119
120
121
122
123
124
125
126
127
128
129
130
131
132
133
134
135
136
137
138
139
140
141
142
143
144
145
146
147
148
149
150
151
152
153
154
155
156
157
158
159
160
161
162
163
164
165
166
167
168
169
170
171
172
173
174
175
176
177
178
179
180
181
182
183
184
185
186
187
188
189
190
191
192
193
194
195
196
197
198
199
200
201
202
203
204
205
206
207
208
209
210
211
212
213
214
215
216
217
218
219
220
221
222
223
224
225
226
227
228
229
230
231
232
233
234
235
236
237
238
239
240
241
242
243
244
245
246
247
248
249
250
251
252
253
254
255
256
257
258
259
260
261
262
263
264
265
266
267
268
269
270
271
272
273
274
275
276
277
278
279
280
281
282
283
284
285
286
287
288
289
290
291
292
293
294
295
296
297
298
299
300
301
302
303
304
305
306
307
308
309
310
311
312
313
314
315
316
317
318
319
320
321
322
323
324
325
326
327
328
329
330
331
332
333
334
335
336
337
338
339
340
341
342
343
344
345
346
347
348
349
350
351
352
353
354
355
356
357
358
359
360
361
362
363
364
365
366
367
368
369
370
371
372
373
374
375
376
377
378
379
380
381
382
383
384
385
386
387
388
389
390
391
392
393
394
395
396
397
398
399
400
401
402
403
404
405
406
407
408
409
410
411
412
413
414
415
416
417
418
419
420
421
422
423
424
425
426
427
428
429
430
431
432
433
434
435
436
437
438
439
440
441
442
443
444
445
446
447
448
449
450
451
452
453
454
455
456
457
458
459
460
461
462
463
464
465
466
467
468
469
470
471
472
473
474
475
476
477
478
479
480
481
482
483
484
485
486
487
488
489
490
491
492
493
494
495
496
497
498
499
500
501
502
503
504
505
506
507
508
509
510
511
512
513
514
515
516
517
518
519
520
521
522
523
524
525
526
527
528
529
530
531
532
533
534
535
536
537
538
539
540
541
542
543
544
545
546
547
548
549
550
551
552
553
554
555
556
557
558
559
560
561
562
563
564
565
566
567
568
569
570
571
572
573
574
575
576
577
578
579
580
581
582
583
584
585
586
587
588
589
590
591
592
593
594
595
596
597
598
599
600
601
602
603
604
605
606
607
608
609
610
611
612
613
614
615
616
617
618
619
620
621
622
623
624
625
626
627
628
629
630
631
632
633
634
635
636
637
638
639
640
641
642
643
644
645
646
647
648
649
650
651
652
653
654
655
656
657
658
659
660
661
662
663
664
665
666
667
668
669
670
671
672
673
674
675
676
677
678
679
680
681
682
683
684
685
686
687
688
689
690
691
692
693
694
695
696
697
698
699
700
701
702
703
704
705
706
707
708
709
710
711
712
713
714
715
716
717
718
719
720
721
722
723
724
725
726
727
728
729
730
731
732
733
734
735
736
737
738
739
740
741
742
743
744
745
746
747
748
749
750
751
752
753
754
755
756
757
758
759
760
761
762
763
764
765
766
767
768
769
770
771
772
773
774
775
776
777
778
779
780
781
782
783
784
785
786
787
788
789
790
791
792
793
794
795
796
797
798
799
800
801
802
803
804
805
806
807
808
809
810
811
812
813
814
815
816
817
818
819
820
821
822
823
824
825
826
827
828
829
830
831
832
833
834
835
836
837
838
839
840
841
842
843
844
845
846
847
848
849
850
851
852
853
854
855
856
857
858
859
860
861
862
863
864
865
866
867
868
869
870
871
872
873
874
875
876
877
878
879
880
881
882
883
884
885
886
887
888
889
890
891
892
893
894
895
896
897
898
899
900
901
902
903
904
905
906
907
908
909
910
911
912
913
914
915
916
917
918
919
920
921
922
923
924
925
926
927
928
929
930
931
932
933
934
935
936
937
938
939
940
941
942
943
944
945
946
947
948
949
950
951
952
953
954
955
956
957
958
959
960
961
962
963
964
965
966
967
968
969
970
971
972
973
974
975
976
977
978
979
980
981
982
983
984
985
986
987
988
989
990
991
992
993
994
995
996
997
998
999
1000
1001
1002
1003
1004
1005
1006
1007
1008
1009
1010
1011
1012
1013
1014
1015
1016
1017
1018
1019
1020
1021
1022
1023
1024
1025
1026
1027
1028
1029
1030
1031
1032
1033
1034
1035
1036
1037
1038
1039
1040
1041
1042
1043
1044
1045
1046
1047
1048
1049
1050
1051
1052
1053
1054
1055
1056
1057
1058
1059
1060
1061
1062
1063
1064
1065
1066
1067
1068
1069
1070
1071
1072
1073
1074
1075
1076
1077
1078
1079
1080
1081
1082
1083
1084
1085
1086
1087
1088
1089
1090
1091
1092
1093
1094
1095
1096
1097
1098
1099
1100
1101
1102
1103
1104
1105
1106
1107
1108
1109
1110
1111
1112
1113
1114
1115
1116
1117
1118
1119
1120
1121
1122
1123
1124
1125
1126
1127
1128
1129
1130
1131
1132
1133
1134
1135
1136
1137
1138
1139
1140
1141
1142
1143
1144
1145
1146
1147
1148
1149
1150
1151
1152
1153
1154
1155
1156
1157
1158
1159
1160
1161
1162
1163
1164
1165
1166
1167
1168
1169
1170
1171
1172
1173
1174
1175
1176
1177
1178
1179
1180
1181
1182
1183
1184
1185
1186
1187
1188
1189
1190
1191
1192
1193
1194
1195
1196
1197
1198
1199
1200
1201
1202
1203
1204
1205
1206
1207
1208
1209
1210
1211
1212
1213
1214
1215
1216
1217
1218
1219
1220
1221
1222
1223
1224
1225
1226
1227
1228
1229
1230
1231
1232
1233
1234
1235
1236
1237
1238
1239
1240
1241
1242
1243
1244
1245
1246
1247
1248
1249
1250
1251
1252
1253
1254
1255
1256
1257
1258
1259
1260
1261
1262
1263
1264
1265
1266
1267
1268
1269
1270
1271
1272
1273
1274
1275
1276
1277
1278
1279
1280
1281
1282
1283
1284
1285
1286
1287
1288
1289
1290
1291
1292
1293
1294
1295
1296
1297
1298
1299
1300
1301
1302
1303
1304
1305
1306
1307
1308
1309
1310
1311
1312
1313
1314
1315
1316
1317
1318
1319
1320
1321
1322
1323
1324
1325
1326
1327
1328
1329
1330
1331
1332
1333
1334
1335
1336
1337
1338
1339
1340
1341
1342
1343
1344
1345
1346
1347
1348
1349
1350
1351
1352
1353
1354
1355
1356
1357
1358
1359
1360
1361
1362
1363
1364
1365
1366
1367
1368
1369
1370
1371
1372
1373
1374
1375
1376
1377
1378
1379
1380
1381
1382
1383
1384
1385
1386
1387
1388
1389
1390
1391
1392
1393
1394
1395
1396
1397
1398
1399
1400
1401
1402
1403
1404
1405
1406
1407
1408
1409
1410
1411
1412
1413
1414
1415
1416
1417
1418
1419
1420
1421
1422
1423
1424
1425
1426
1427
1428
1429
1430
1431
1432
1433
1434
1435
1436
1437
1438
1439
1440
1441
1442
1443
1444
1445
1446
1447
1448
1449
1450
1451
1452
1453
1454
1455
1456
1457
1458
1459
1460
1461
1462
1463
1464
1465
1466
1467
1468
1469
1470
1471
1472
1473
1474
1475
1476
1477
1478
1479
1480
1481
1482
1483
1484
1485
1486
1487
1488
1489
1490
1491
1492
1493
1494
1495
1496
1497
1498
1499
1500
1501
1502
1503
1504
1505
1506
1507
1508
1509
1510
1511
1512
1513
1514
1515
1516
1517
1518
1519
1520
1521
1522
1523
1524
1525
1526
1527
1528
1529
1530
1531
1532
1533
1534
1535
1536
1537
1538
1539
1540
1541
1542
1543
1544
1545
1546
1547
1548
1549
1550
1551
1552
1553
1554
1555
1556
1557
1558
1559
1560
1561
1562
1563
1564
1565
1566
1567
1568
1569
1570
1571
1572
1573
1574
1575
1576
1577
1578
1579
1580
1581
1582
1583
1584
1585
1586
1587
1588
1589
1590
1591
1592
1593
1594
1595
1596
1597
1598
1599
1600
1601
1602
1603
1604
1605
1606
1607
1608
1609
1610
1611
1612
1613
1614
1615
1616
1617
1618
1619
1620
1621
1622
1623
1624
1625
1626
1627
1628
1629
1630
1631
1632
1633
1634
1635
1636
1637
1638
1639
1640
1641
1642
1643
1644
1645
1646
1647
1648
1649
1650
1651
1652
1653
1654
1655
1656
1657
1658
1659
1660
1661
1662
1663
1664
1665
1666
1667
1668
1669
1670
1671
1672
1673
1674
1675
1676
1677
1678
1679
1680
1681
1682
1683
1684
1685
1686
1687
1688
1689
1690
1691
1692
1693
1694
1695
1696
1697
1698
1699
1700
1701
1702
1703
1704
1705
1706
1707
1708
1709
1710
1711
1712
1713
1714
1715
1716
1717
1718
1719
1720
1721
1722
1723
1724
1725
1726
1727
1728
1729
1730
1731
1732
1733
1734
1735
1736
1737
1738
1739
1740
1741
1742
1743
1744
1745
1746
1747
1748
1749
1750
1751
1752
1753
1754
1755
1756
1757
1758
1759
1760
1761
1762
1763
1764
1765
1766
1767
1768
1769
1770
1771
1772
1773
1774
1775
1776
1777
1778
1779
1780
1781
1782
1783
1784
1785
1786
1787
1788
1789
1790
1791
1792
1793
1794
1795
1796
1797
1798
1799
1800
1801
1802
1803
1804
1805
1806
1807
1808
1809
1810
1811
1812
1813
1814
1815
1816
1817
1818
1819
1820
1821
1822
1823
1824
1825
1826
1827
1828
1829
1830
1831
1832
1833
1834
1835
1836
1837
1838
1839
1840
1841
1842
1843
1844
1845
1846
1847
1848
1849
1850
1851
1852
1853
1854
1855
1856
1857
1858
1859
1860
1861
SCALARS AREA  float  1
LOOKUP_TABLE default
322527.989893
256969.303806
435763.531000
660656.487302
220283.795560
60186.087071
310426.601385
63331.479488
125275.352968
78648.725964
124554.361189
95551.868061
159939.422983
123176.146709
132737.268719
66142.451750
289083.230702
145937.247388
256461.059229
25779.348880
4859.625349
4487.088681
10191.465126
27076.228842
1123045.456465
449717.631261
881282.252127
1388072.671733
242623.666595
19264.871058
226515.043515
59644.718090
60489.759777
13044.823851
11269.893536
13141.815848
12178.546834
12738.055549
26202.083969
14477.262223
8702.838059
7708.110588
10254.462198
12726.714589
17282.747923
15338.578314
28146.889732
38246.353774
185069.870197
107842.174678
63224.483824
30771.254716
28070.770238
52022.917521
23882.048695
17921.861470
14868.030545
27690.388148
19468.118112
42257.905910
51898.865166
91723.694501
60365.522854
193276.127474
110349.366221
163408.308069
78020.280705
42983.198852
59738.236271
45413.948938
63220.971112
108792.664737
66079.638926
53624.458615
51027.761107
52057.769393
66210.454276
78090.956021
92464.224959
58406.242080
48023.148769
85521.953419
57195.523399
55155.122952
63751.350795
109700.026945
81408.602485
45159.948347
64969.413722
91735.352356
60339.263318
17665.709420
27089.128143
67300.808215
72183.073331
196306.938494
258898.016409
639841.964672
1904174.775384
2041541.620826
955.835769
1130.398414
9832.611726
15917.001161
12117.677328
42088.964266
81781.056278
8854.085931
9391.830248
13013.329320
11873.429116
14672.286995
25533.412090
68091.741364
54058.636220
6688934.097018
3743519.326542
291838.677851
844705.262332
1867233.287176
325059.555683
3306266.330322
29673.959455
51569.780927
64294.106242
66243.845274
221129.580022
367361.148197
115745.713916
168614.006700
21436.025095
27336.002600
27405.805529
60070.020848
130967.871518
69832.019635
18080.785396
17015.427224
16496.037584
19750.955554
19665.841449
34890.703831
33562.887426
20975.367610
35921.332319
130796.702473
18274.970520
35793.091268
39187.923252
28019.979963
21078.634289
16617.944088
15157.415913
15625.149092
25510.239273
39508.285570
75506.225737
53049.777215
53096.028277
70925.545702
51776.530833
34161.966477
16540.362949
16226.617572
19526.642719
17478.886832
26045.543487
25190.162640
27124.535472
37646.037808
105878.893695
41197.549947
36045.835575
24273.905274
33290.371864
21850.206565
35485.109506
101999.758172
86749.456473
41343.439992
65463.179586
63250.979105
45577.868136
90019.782299
57750.594278
92842.259373
151323.463101
143788.516222
94404.286471
103041.026713
99999.834797
49168.290384
58267.297850
50902.001886
51532.476441
57357.908121
64431.347896
39564.899803
40079.636608
69734.416554
91974.607594
958.767313
3635.679571
1363.587216
33037.116649
8576.182651
1382.433373
6347.673885
30783.139637
122185.828429
251739.114334
657256.424280
1659030.767392
2995224.118503
2002291.350080
2936.072168
2224.122379
8208.359840
7442.942060
4605.455139
25027.445238
10753.742065
45136.512507
21522.216939
138249.067013
35877.442986
38306.151202
48112.169437
70308.989766
83500.037181
5118036.914083
2365888.777963
736431.794902
1834423.668171
493854.198327
2830861.324346
106727.514072
114019.809301
157631.151267
143228.364673
535697.857824
397473.563968
79401.628021
136745.560709
191167.940416
119848.824512
45208.393028
15118.782470
19037.443524
128955.639951
57205.000152
189142.024538
30432.816550
28432.731397
29956.792880
23640.438586
95079.715777
37362.858250
34345.500258
178554.222051
19300.312829
33341.836007
93616.048495
79609.603506
45998.984174
38816.155816
47939.668131
70201.895029
48066.416842
27065.970655
44754.432654
18082.647095
10671.175100
8582.774990
28859.745583
25089.058753
47841.689173
24634.349216
32461.447282
33042.968891
26202.436116
16360.545790
12519.027930
10982.273115
14169.721914
12265.297446
76054.425757
176504.671963
163045.401001
70817.506136
51064.899310
36290.027649
68660.646547
43656.485887
31731.997693
65909.250138
231609.184401
82633.004942
58334.070431
28542.534039
44770.648662
82218.989792
92909.079101
105044.636123
67037.354205
106897.887871
12612.242983
112848.060354
83416.564872
156249.861639
57708.473449
165136.565782
214358.414799
172366.124260
162629.297880
61898.040477
67838.658629
61761.261741
91150.591234
39884.870041
111337.393174
100071.317432
6108.504718
1334.880820
3852.563482
1887.153436
17297.782554
20719.180837
2353.980731
2497.066498
10810.289703
21493.005494
125854.048098
957508.184195
1277197.714714
4535.624581
3763.598046
15057.714386
12034.761942
6820.566600
32350.035198
34417.034282
144449.571722
113532.377596
104072.710509
133441.158511
141371.426275
118732.689592
3668424.827736
1646793.645580
2191819.462749
466721.526615
415117.724048
1524882.333939
250302.686635
371158.327274
338935.473615
141397.070677
44286.651698
113647.686093
78446.339934
30896.162769
34311.057674
33257.851692
28579.726902
35982.021934
1519825.325221
97429.557272
136439.528406
91402.407671
20130.725076
18511.173017
68936.609607
20057.414531
39359.377319
94385.918699
81598.338041
29213.302878
30466.153360
35231.266901
48216.273250
25531.307967
34036.376128
27474.261207
39136.296839
107559.487074
86261.024094
129593.195016
61732.459111
34325.102533
39438.907996
44917.765965
23076.184660
41237.223508
101552.571745
50358.332226
28464.595413
15036.666214
23982.548481
15990.491040
12008.800533
10170.971082
6401.056671
3663.722808
2349.107624
1370.721559
10812.214714
5620.639605
2965.138401
920.392416
25334.571591
28158.891705
15921.773128
31863.392610
32492.005417
21772.180420
18291.291010
8027.088038
13868.414991
35097.141337
5029.345715
9758.399738
5882.803490
131046.694694
188227.348700
278078.555709
189310.095548
166047.940205
22425.373087
76963.420890
337319.994828
41042.435755
54255.586241
206508.956145
95307.157559
134943.115294
139064.906405
94165.129939
64903.775452
23303.141431
138523.894128
13874.337007
7783.242200
8359.671339
9600.918332
8168.222035
55497.715352
33125.657427
132416.313485
130897.938407
45410.887871
112689.044882
124545.744398
127408.453019
153394.353942
137587.083076
68714.205377
80713.493550
77539.321709
88826.968603
43851.496999
61219.825354
91958.331282
11565.985700
4407.360041
5674.485735
16155.943453
22603.260872
29142.988711
4914.956327
5733.211555
28988.419127
54017.027841
272523.592118
633291.873920
10757.858508
15606.229005
41617.289265
28388.401200
49586.141975
191914.515357
337788.347633
237798.336913
4116257.498947
1914679.487071
975856.533895
856412.339239
3320371.519392
164917.587537
139332.006676
110716.449176
139576.585282
49075.431047
94282.313703
75148.690988
99106.700034
55681.223854
51777.107501
1285328.520516
80208.228861
48566.965194
37702.327922
25348.291427
46703.549185
48030.026585
17005.586757
17865.702154
41391.894409
59386.412393
47197.359359
24865.266425
63962.667838
38497.147143
76688.046011
37201.807284
40249.089220
176043.324009
155374.446418
182202.649785
142457.639137
148596.829762
263280.198745
117539.974890
73589.972455
31671.219338
18576.340534
9847.563498
7860.692528
6544.761840
1844.074374
3452.740073
2421.603970
15436.461275
6641.663049
2110.517683
1151.220822
26576.272931
61130.390451
36103.370040
63492.267429
4935.774593
42674.191723
13207.801589
51014.161633
54387.384974
3665.668430
3382.938675
4813.864233
5170.580062
15692.787745
9636.415156
212342.082463
77951.962785
306164.350211
240712.877427
435463.135826
484114.392000
24326.389049
10760.552882
19125.667956
29855.899090
31465.207693
11925.414174
191102.751676
159323.945746
222748.540951
208689.368923
47332.608149
88513.658078
63223.111160
60004.710799
22877.992279
10400.124803
11953.102159
12884.057336
11292.504945
41090.666082
26787.386564
41349.435912
81458.008267
31004.762146
58059.401790
35036.149740
40203.649366
38450.187558
80161.799877
92979.991910
56336.661777
53247.218032
58714.934330
92499.014870
61321.404605
27816.770600
40831.826292
50108.571493
11623.979913
13683.370945
11951.691554
32735.825136
35886.288442