# vtk DataFile Version 1.0
 Lateral Connection Group-based connection lines produced by HydroAlgorithmics' AlgoMesh 2.0.15.
ASCII
 
DATASET POLYDATA
POINTS 10808 DOUBLE
225615.949742576 6452.994296229 -5.000000000
225934.431365076 6494.622087260 -5.000000000
225615.949742576 6452.994296229 -5.000000000
225337.012329250 6612.234166561 -5.000000000
225615.949742576 6452.994296229 -5.000000000
225018.497491594 6277.826657778 -5.000000000
225615.949742576 6452.994296229 -5.000000000
225536.452094678 6764.191244856 -5.000000000
225615.949742576 6452.994296229 -5.000000000
225848.985143615 5909.228133432 -5.000000000
225934.431365076 6494.622087260 -5.000000000
226183.148718804 6723.554762664 -5.000000000
225934.431365076 6494.622087260 -5.000000000
225735.966093349 6932.419490532 -5.000000000
225934.431365076 6494.622087260 -5.000000000
225536.452094678 6764.191244856 -5.000000000
225934.431365076 6494.622087260 -5.000000000
225848.985143615 5909.228133432 -5.000000000
225934.431365076 6494.622087260 -5.000000000
226464.624520598 6168.181169564 -5.000000000
226183.148718804 6723.554762664 -5.000000000
226385.041832147 6994.681417012 -5.000000000
226183.148718804 6723.554762664 -5.000000000
226156.007388494 7060.502592606 -5.000000000
226183.148718804 6723.554762664 -5.000000000
225735.966093349 6932.419490532 -5.000000000
226183.148718804 6723.554762664 -5.000000000
226768.045058757 6822.008278145 -5.000000000
226183.148718804 6723.554762664 -5.000000000
226464.624520598 6168.181169564 -5.000000000
223458.211580255 5609.263437304 -5.000000000
224334.925791875 5510.454965996 -5.000000000
223458.211580255 5609.263437304 -5.000000000
222999.010269684 5535.575198040 -5.000000000
223458.211580255 5609.263437304 -5.000000000
222791.437621257 5951.759527227 -5.000000000
223458.211580255 5609.263437304 -5.000000000
223961.761055816 6138.302287479 -5.000000000
223458.211580255 5609.263437304 -5.000000000
223611.106127901 6323.453493684 -5.000000000
223458.211580255 5609.263437304 -5.000000000
222978.147691539 6359.816625782 -5.000000000
223458.211580255 5609.263437304 -5.000000000
223359.239845076 4758.382072245 -5.000000000
224334.925791875 5510.454965996 -5.000000000
225018.497491594 6277.826657778 -5.000000000
224334.925791875 5510.454965996 -5.000000000
224344.830469666 6240.760434064 -5.000000000
224334.925791875 5510.454965996 -5.000000000
223961.761055816 6138.302287479 -5.000000000
224334.925791875 5510.454965996 -5.000000000
225848.985143615 5909.228133432 -5.000000000
224334.925791875 5510.454965996 -5.000000000
224507.466744680 4277.683325439 -5.000000000
224334.925791875 5510.454965996 -5.000000000
223359.239845076 4758.382072245 -5.000000000
222999.010269684 5535.575198040 -5.000000000
222791.437621257 5951.759527227 -5.000000000
222999.010269684 5535.575198040 -5.000000000
222536.316833079 5582.592045634 -5.000000000
222999.010269684 5535.575198040 -5.000000000
223359.239845076 4758.382072245 -5.000000000
222999.010269684 5535.575198040 -5.000000000
222703.380228083 4926.470562999 -5.000000000
222791.437621257 5951.759527227 -5.000000000
222536.316833079 5582.592045634 -5.000000000
222791.437621257 5951.759527227 -5.000000000
222978.147691539 6359.816625782 -5.000000000
222791.437621257 5951.759527227 -5.000000000
222612.005759827 6363.068964427 -5.000000000
222791.437621257 5951.759527227 -5.000000000
222193.024646713 6287.590988315 -5.000000000
222536.316833079 5582.592045634 -5.000000000
222703.380228083 4926.470562999 -5.000000000
222536.316833079 5582.592045634 -5.000000000
222110.934546738 5124.950273736 -5.000000000
222536.316833079 5582.592045634 -5.000000000
222193.024646713 6287.590988315 -5.000000000
222536.316833079 5582.592045634 -5.000000000
221927.555768321 5722.242751961 -5.000000000
221012.771828787 5547.511399515 -5.000000000
220739.239067511 5724.650897587 -5.000000000
221012.771828787 5547.511399515 -5.000000000
220609.392458966 5480.552633165 -5.000000000
221012.771828787 5547.511399515 -5.000000000
221446.076158294 5132.142384728 -5.000000000
221012.771828787 5547.511399515 -5.000000000
220776.697076644 5009.846382070 -5.000000000
221012.771828787 5547.511399515 -5.000000000
221293.677519718 5712.709965097 -5.000000000
221012.771828787 5547.511399515 -5.000000000
220910.253885447 5856.847211476 -5.000000000
220739.239067511 5724.650897587 -5.000000000
220609.392458966 5480.552633165 -5.000000000
220739.239067511 5724.650897587 -5.000000000
220910.253885447 5856.847211476 -5.000000000
220739.239067511 5724.650897587 -5.000000000
220667.492315429 5928.548756637 -5.000000000
220739.239067511 5724.650897587 -5.000000000
220548.011522664 5825.417754493 -5.000000000
220609.392458966 5480.552633165 -5.000000000
220223.720983068 5539.494071433 -5.000000000
220609.392458966 5480.552633165 -5.000000000
220388.089948065 5323.756734773 -5.000000000
220609.392458966 5480.552633165 -5.000000000
220776.697076644 5009.846382070 -5.000000000
220609.392458966 5480.552633165 -5.000000000
220548.011522664 5825.417754493 -5.000000000
220609.392458966 5480.552633165 -5.000000000
220376.854101513 5742.517294071 -5.000000000
220223.720983068 5539.494071433 -5.000000000
220082.559799149 5559.323807804 -5.000000000
220223.720983068 5539.494071433 -5.000000000
220117.987738881 5299.169102160 -5.000000000
220223.720983068 5539.494071433 -5.000000000
220388.089948065 5323.756734773 -5.000000000
220223.720983068 5539.494071433 -5.000000000
220376.854101513 5742.517294071 -5.000000000
220223.720983068 5539.494071433 -5.000000000
220166.704296928 5762.499548953 -5.000000000
220082.559799149 5559.323807804 -5.000000000
220117.987738881 5299.169102160 -5.000000000
220082.559799149 5559.323807804 -5.000000000
219955.000744413 5622.950734843 -5.000000000
220082.559799149 5559.323807804 -5.000000000
219892.639230424 5510.028305180 -5.000000000
220082.559799149 5559.323807804 -5.000000000
220166.704296928 5762.499548953 -5.000000000
220082.559799149 5559.323807804 -5.000000000
220058.579506864 5699.839443487 -5.000000000
225337.012329250 6612.234166561 -5.000000000
225018.497491594 6277.826657778 -5.000000000
225337.012329250 6612.234166561 -5.000000000
225536.452094678 6764.191244856 -5.000000000
225337.012329250 6612.234166561 -5.000000000
225323.321814087 6862.593395415 -5.000000000
225337.012329250 6612.234166561 -5.000000000
225115.329674367 6729.383533617 -5.000000000
225018.497491594 6277.826657778 -5.000000000
224344.830469666 6240.760434064 -5.000000000
225018.497491594 6277.826657778 -5.000000000
225848.985143615 5909.228133432 -5.000000000
225018.497491594 6277.826657778 -5.000000000
225115.329674367 6729.383533617 -5.000000000
225018.497491594 6277.826657778 -5.000000000
224517.541158984 6693.475055205 -5.000000000
224344.830469666 6240.760434064 -5.000000000
223961.761055816 6138.302287479 -5.000000000
224344.830469666 6240.760434064 -5.000000000
224517.541158984 6693.475055205 -5.000000000
224344.830469666 6240.760434064 -5.000000000
224255.527848798 6717.000449503 -5.000000000
224344.830469666 6240.760434064 -5.000000000
223941.860811897 6534.337422185 -5.000000000
223961.761055816 6138.302287479 -5.000000000
223611.106127901 6323.453493684 -5.000000000
223961.761055816 6138.302287479 -5.000000000
223941.860811897 6534.337422185 -5.000000000
223611.106127901 6323.453493684 -5.000000000
223462.993879920 6755.425539413 -5.000000000
223611.106127901 6323.453493684 -5.000000000
222978.147691539 6359.816625782 -5.000000000
223611.106127901 6323.453493684 -5.000000000
223290.963476717 6550.123684000 -5.000000000
223611.106127901 6323.453493684 -5.000000000
223941.860811897 6534.337422185 -5.000000000
223611.106127901 6323.453493684 -5.000000000
223714.464303428 6701.855105516 -5.000000000
223462.993879920 6755.425539413 -5.000000000
223290.963476717 6550.123684000 -5.000000000
223462.993879920 6755.425539413 -5.000000000
223714.464303428 6701.855105516 -5.000000000
223462.993879920 6755.425539413 -5.000000000
223246.501313074 6814.257035674 -5.000000000
223462.993879920 6755.425539413 -5.000000000
223600.781250000 6932.470214844 -5.000000000
223462.993879920 6755.425539413 -5.000000000
223376.656250000 6962.490722656 -5.000000000
222978.147691539 6359.816625782 -5.000000000
223290.963476717 6550.123684000 -5.000000000
222978.147691539 6359.816625782 -5.000000000
222612.005759827 6363.068964427 -5.000000000
222978.147691539 6359.816625782 -5.000000000
223077.700375300 6712.179726887 -5.000000000
223290.963476717 6550.123684000 -5.000000000
223246.501313074 6814.257035674 -5.000000000
223290.963476717 6550.123684000 -5.000000000
223077.700375300 6712.179726887 -5.000000000
222612.005759827 6363.068964427 -5.000000000
222344.204000377 6640.897237081 -5.000000000
222612.005759827 6363.068964427 -5.000000000
222193.024646713 6287.590988315 -5.000000000
222612.005759827 6363.068964427 -5.000000000
223077.700375300 6712.179726887 -5.000000000
222612.005759827 6363.068964427 -5.000000000
222528.847883592 6739.886027563 -5.000000000
222344.204000377 6640.897237081 -5.000000000
222080.777623454 6655.124807386 -5.000000000
222344.204000377 6640.897237081 -5.000000000
222193.024646713 6287.590988315 -5.000000000
222344.204000377 6640.897237081 -5.000000000
222207.890625000 6866.761230469 -5.000000000
222344.204000377 6640.897237081 -5.000000000
222393.750000000 6900.013183594 -5.000000000
222344.204000377 6640.897237081 -5.000000000
222528.847883592 6739.886027563 -5.000000000
226531.717143804 7169.364868833 -5.000000000
226385.041832147 6994.681417012 -5.000000000
226531.717143804 7169.364868833 -5.000000000
226768.045058757 6822.008278145 -5.000000000
226531.717143804 7169.364868833 -5.000000000
226760.384342656 7258.722433851 -5.000000000
226531.717143804 7169.364868833 -5.000000000
226556.890625000 7396.067871094 -5.000000000
226531.717143804 7169.364868833 -5.000000000
226386.312500000 7345.107421875 -5.000000000
226385.041832147 6994.681417012 -5.000000000
226156.007388494 7060.502592606 -5.000000000
[...]
CELL_DATA 5404
SCALARS INTERFACE_AREA  float  1
LOOKUP_TABLE default
4431.913975941
3456.420108180
2584.162802112
2492.320350062
4325.460707591
4731.396738276
1665.365679403
387.746812833
2949.399720770
2757.323027664
3159.254871005
2514.182343452
1353.814509930
1683.788811954
3013.630172935
5537.878067317
6959.434922222
1242.376495289
3797.478069144
3672.699474371
486.914438221
5634.681507858
6063.690315015
4662.027049936
3797.478069144
4692.092911221
12168.609006812
3632.919584499
4445.882790382
4034.925078525
2080.619211567
4003.155786605
4655.040620541
4856.386910439
3723.182550127
1117.798704031
2772.633047858
3816.612675976
1216.929204969
4323.150976241
1820.166661783
2347.566602841
2875.298290010
2647.192129450
3975.258778386
1889.358705372
2591.881022145
2127.862243343
1204.481708925
1802.063315663
324.988865269
3616.658860208
2334.637709197
500.827748418
1438.487874675
2114.369602942
1193.847388015
2154.036273212
1987.741635607
1005.525545041
1201.843466158
1037.052734963
1164.046802599
42.714750404
1293.504274361
2876.360959391
1876.965177957
1373.654471584
2755.119889800
5040.463385268
6304.478145846
3117.101695514
2356.308702376
4837.870379555
3296.664733589
1747.381993364
1421.665242509
4363.470700255
2731.089715570
315.883969417
1833.999173436
4026.548515577
1921.914689690
1933.059845987
2476.259095436
2514.754042548
1506.569286118
1539.350801747
1203.589579319
3648.021080545
4036.938036309
3116.968382063
1148.065445379
1971.208426747
1815.357328549
3710.105783769
3.664933807
2864.305813292
2262.059938155
1985.344433651
1203.854262589
784.863766762
2558.143998987
3229.227392878
1371.181268136
2518.028821605
1271.303381232
1851.702843344
2649.853502047
2785.148741526
173.324191511
351.464560218
1511.753189056
1901.289426592
2471.576423304
3426.012773520
373.451306785
1855.261134082
2173.330639238
2277.731019841
530.183683269
87.502952286
1777.850613067
1664.325872826
2040.019380524
1047.152870672
1694.785146808
1655.847486238
3107.118281315
3844.913009347
3300.116054219
2376.714849740
1685.074226917
3246.572991992
4088.606646826
7030.305799126
5753.941215304
2772.641138663
8087.176085098
6690.632104165
5874.947572721
1033.671250718
2840.558534207
145.878969143
727.173784086
1558.839132925
1555.177775606
553.589372827
2946.804386176
2929.881491152
2306.583786505
406.376184063
1560.975394187
2396.219136826
2006.961287070
510.080954284
1858.880832498
1689.579524420
697.822088912
1596.011399966
1174.771844495
1753.554878178
1454.666261920
1592.244321297
626.407423157
1215.928045085
1219.980259027
896.704669387
168.774283227
1860.033492230
2408.002998371
2557.096668295
1263.059433359
1849.827345247
298.299967564
1887.571381499
3138.062573631
2962.853344672
3361.509604307
1380.852925978
2464.798443317
2194.040584363
2194.040584363
15127.440958999
5786.029596904
15551.869631383
9649.901667466
12172.358575485
10641.271293500
10399.997816578
3357.275366949
8288.917171284
8845.921365609
6859.421180295
4467.997028207
3323.375359986
5964.127765049
4295.959090740
5142.888183621
6329.697858275
2152.982278963
3371.355574446
5783.489563252
330.266734884
5557.302874203
5231.783594579
14440.841772570
24868.947861462
9508.910838736
2517.758216413
935.493228461
1930.967626617
3355.852576744
3783.824953687
861.856690163
1275.319112646
54.527657722
1067.543675594
1769.426748544
2389.762447976
1499.325588061
1032.699117973
1836.377831550
1191.196502033
1463.120136101
1495.769371489
765.835244989
975.770662830
296.484833408
330.116749656
1436.558860745
865.234620676
828.565244581
1372.245254878
672.479704842
420.497663943
1671.832216756
958.914084278
672.721577782
544.427200928
905.162197285
1503.388674714
2101.957607482
1216.498841105
287.308965368
617.087867675
931.562104695
394.617460207
500.779815487
1465.412716125
762.458299919
974.640034725
1199.561189166
297.107277050
3060.345034999
3355.484021180
2587.060728081
754.821153670
1367.616636307
762.969718772
2383.083752738
1072.393530744
1303.198544941
224.798517810
1809.626158678
840.758530637
1017.312236052
818.524149275
626.374879559
88.407820394
2125.776870979
2047.597225846
2393.315095566
1354.410568681
2225.487431830
340.128350373
4083.451454216
2776.980619064
1525.374103678
4190.941582236
3523.172818310
1017.629324017
966.509033915
3029.611468789
1294.957957295
315.637117822
2281.036851747
1778.511612687
1447.091860336
1377.773680294
996.763250992
1031.215979991
2185.982067801
661.653032058
1025.071837610
1170.638282323
1023.966160234
912.159494641
1567.186238436
1254.714186540
917.575499798
936.731685225
329.910046326
310.014802439
1058.771845339
936.346298591
751.279764892
1258.466734066
640.358870134
1904.937405821
1796.313405514
2859.339439287
1739.652149780
1170.095916287
1891.325982055
2805.645970324
1881.922583956
2697.938130494
2904.314337949
1066.287462866
466.766729132
1368.174243062
2213.184798589
1430.826973566
1520.168020562
1038.481375418
930.508626021
1318.220746654
2311.525455421
1813.839614925
2284.964432901
1574.636728934
2388.857079254
333.536036807
1412.947890624
2163.054528193
1290.174007549
1908.643218773
2151.519963307
1183.990311486
51.779046179
2059.404401657
1440.924700765
1659.208354608
1818.907598676
3104.386921590
1902.292870978
69.902247461
2597.499529082
1925.502338618
323.554484688
2458.168559138
2394.579024798
1739.657674014
3220.629595572
2067.442975368
1316.932255762
1357.660882282
1735.605986538
1933.889884628
1385.296797533
542.298191368
62.328959216
1914.693592630
316.019750106
2437.568823390
1399.377113869
1173.250626757
2505.158709186
107.254936778
1668.458113244
2602.750104452
3847.332777375
1550.926080053
2206.882456906
502.640611584
1113.037386557
1851.687686814
1214.317769834
386.669943619
843.705620098
928.531709118
411.926718956
5383.467902621
3641.068367305
3353.803580561
4375.962133912
4375.962133912
4044.138547456
5442.047694028
3874.135828281
11940.527367592
9026.002270914
5690.624627819
22465.166087176
14680.266274235
18014.695032977
5708.313610099
13379.646910583
1640.596398961
2562.445333511
2021.922051864
1572.683233926
907.321138492
993.202231653
1136.764023252
1268.316015964
1184.282677363
2381.503512048
2468.703928800
2063.551919597
2232.416111900
595.986970425
1975.279820134
459.325989186
1505.942889864
2905.002727291
1826.416209268
2302.804092874
336.277078554
1543.975423926
2404.612209165
1829.284402343
1092.568130373
781.848655170
1690.983744787
2204.649098565
2106.872285151
1650.960834261
3296.482558566
1271.952424201
290.889858593
823.899639894
984.804280665
593.820017296
1058.108950539
1055.064717298
993.656410700
927.706150707
861.966326695
1118.184877352
746.325261475
769.478078035
244.992357135
805.348013100
297.090515481
760.655208402
466.024677947
992.603715558
1116.914995025
415.028657983
227.465549628
314.892661795
575.428339983
477.358855274
128.838179714
270.721712968
165.833296080
198.650228571
231.205445431
168.218777620
131.989004200
182.141460277
244.136122607
118.219991678
206.566036507
46.741433136
423.709083819
116.750766381
204.274218172
119.571427734
118.901568713
103.654335527
142.653833632
106.856007270
56.332928847
162.335152359
222.286205398
184.247236290
611.741655756
3141.148212774
2907.857143354
2700.893762609
4156.909151264
2713.170546956
3200.121111049
4610.901666650
3456.611551921
3153.984599080
3456.611551921
3169.123439652
2030.320450315
5549.026735170
3061.886562251
2720.920050729
6430.629690309
6118.202938894
1090.868959521
4727.603523959
1276.621818599
3384.307145045
5590.161034894
1837.247040699
3767.663395257
4670.883908485
5266.135940262
14872.865506773
12638.028740913
4203.208077114
1939.030512747
9238.545298595
21183.758101820
9260.733154032
6702.351593543
11832.202664475
9986.849384251
5523.007357335
11620.103665731
9993.028208206
6779.826277729
11305.163893663
2829.454619442
1445.491343029
2352.141824449
2257.204348555
1538.852267608
3388.896622504
2996.749052146
218.183281563
456.960901460
679.230217411
1410.148761473
1954.019994589
2039.395110796
1284.487914612
1969.516648680
2043.241044835
198.481788810
817.996446564
1186.759104722
1006.289972221
1077.886983251
1124.302561188
888.858016971
2199.705728943
2536.481957497
2516.684555048
3795.539226279
1071.055247220
983.767336778
85.341644721
1090.685755617
1185.264113337
615.921785878
919.962014737
641.731363236
65.692044383
749.110283408
730.625626669
455.674177634
443.718048773
840.450315544
869.986747913
491.258413000
705.380599211
650.182947168
500.166488140
448.136842670
325.630025869
666.871932525
750.450820134
836.372374145
1084.983054120
895.779222232
2397.419232935
2297.452254628
980.598510729
708.324683349
2444.165043966
4044.352515822
1398.043902675
2907.077583751
3269.991536383
564.415176697
2829.986726473
1146.360221117
1592.476187751
3301.369049284
575.603259218
1658.218610450
991.282394258
611.378780856
2344.232036508
1218.726121866
2241.895708903
525.208071904
1233.671921542
2073.963557951
1388.759600132
527.110194654
1816.431151494
676.037846705
1087.223870723
1559.628280596
312.640885632
978.025870156
259.451596669
1216.843191173
469.711682239
951.505680555
2077.295742361
2060.892778403
1342.707764771
1207.364030497
1302.343232751
144.795458161
3466.974515099
1477.078501928
1948.910584856
2820.931566167
421.069995216
1093.143227770
2008.830998724
1161.269629502
1184.015950449
1072.742091565
976.899554977
1507.164466506
1075.629179143
1796.502444717
1780.416310797
1910.311139384
1458.838643418
142.720452284
2189.756605643
1671.169284907
1387.237302762
288.887822495
1298.271144895
1498.234345567
1368.308131798
1066.608095666
1049.093853081
1222.166623435
238.036707116
1139.351193149
3219.554222503
2320.126625834
311.562571017
2221.451781740
1845.170097950
2394.595826938
1778.740425890
3454.589766014
655.029940322
2280.664534042
2143.116985128
465.367253907
756.151082346
2802.485380006
2965.904490480
1108.004886331
14.671683243
1729.393798610
1160.432640511
1907.316139029
1719.196085631
4.419142363
1584.675550998
2753.558695447
573.899956094
1112.842178490
1804.963880840
2032.257600536
2769.058370590
1011.504184532
923.279574697
3911.226193757
2784.374341983
264.644120762
2641.763175667
2492.876964698
2292.403370864
3974.907452691
1875.052592281
230.952921779
2849.479553897
2803.846106386
1272.162579758
2318.051999694
1749.868023484
1061.361239545
3174.540649169
1946.669995262
1646.735325574
740.386159914
2654.645617346
1160.329715932
1704.977669796
2095.986066554
502.042242967
397.393967924
853.602173244
523.933156518
2140.651200048
5539.483646851
37.785731890
1859.178214942
3780.401217113
685.810667662
1267.449012588
1824.538441115
781.571755190
7865.045336701
8542.238042458
3471.438906744
5998.178651983
4817.407469710
11230.863062138
7387.657058805
12448.454192630
4523.763344137
1027.534278142
931.169737919
247.558298493
1137.543547278
334.411743639
1217.799161524
2101.420050329
1842.192921310
552.188457624
2047.554673845
865.170115511
1962.763160855
474.761907240
2009.868489450
1677.152688307
1383.102515570
2107.063543505
2225.831708631
2008.844366248
1433.398854007
2004.579125079
2561.270441635
2334.427789566
1052.946436865
1862.984895582
55.798996468
3268.006037000
2145.528769596
1163.606497265
687.202977757
596.570376070
323.900872282
413.751098079
414.856118603
609.198749676
1507.107987973
1372.239032057
277.038308235
1371.962858128
767.962367398
977.486684611
388.195320074
968.296036201
775.185846646
828.132125859
728.402510687
1393.715038409
128.533349984
39.697424785
181.343660331
154.391525217
198.528037159
206.347172825
185.116620292
562.213288518
1054.801269671
840.378775059
941.203020039
419.704035183
169.760661570
306.069453632
316.923168440
191.280507834
125.449194515
301.333469607
216.513692935
421.083857182
162.931729655
418.122760421
226.658278307
219.486078210
23.378609044
236.831005690
184.502770265
276.896194752
309.410529735
372.232525638
377.177917177
160.789495855
2522.814924099
2422.511533304
1186.789305902
1754.964988298
1441.882644837
1863.849864656
2215.656034107
3281.199628020
1834.684501411
1541.694582041
1709.787714374
1193.734262818
805.247280173
766.323140332
732.311014984
2665.579201592
820.982819548
1393.151086743
1883.490723697
1723.195061556
1365.647220609
2642.229456138
1546.585727989
3895.702809085
4485.638171851
4484.487017874
4334.744985004
4008.363306744
5015.436635164
1852.818570188
4998.650522127
4510.419773971
9559.368054096
10887.783303813
7216.864071464
6095.382946355
7371.776768524
2948.201321938
13224.378537571
19811.507608695
24439.168723697
5496.669874300
15246.255387955
5411.541672280
9535.321272039
3348.326865979
2506.280019482
332.994857481
526.970056619
2129.269429677
1793.599040319
1675.679262287
47.248515106
1016.638328172
2734.711532050
458.204408236
1483.629784516
2298.637261401
972.791986588
1697.136228234
1226.976013813
1359.052167911
1039.226457856
1099.221235932
148.004901245
926.240735249
57.746901360
447.979198794
1199.244471057
860.698536542
1327.743234251
2579.188008665
2438.554583762
2753.737409727
985.606128358
959.299276599
469.171177109
864.356543319
578.252310729
752.640441975
431.680939014
767.916699829
665.071314899
446.633293844
526.540089788
755.199613131
966.413974002
1106.090688066
866.816519964
1487.521165041
763.408541512
1135.290472020
1025.697302263
971.973386747
917.164114674
672.679101065
3035.449754476
1457.941490636
53.355105368
2207.033807200
1781.571303476
1725.009598577
1052.146513423
1409.397019788
1987.227769925
1302.025622109
758.804044246
1700.354544360
1309.246038719
1230.337106893
1197.201267469
773.510781228
1014.455494284
1309.904285824
1226.386638681
1781.959901431
589.390010636
4.655061722
905.245439663
1081.582843473
1440.442322852
893.815736249
1521.769163111
3570.625906420
2880.423899408
1600.215473564
529.377047692
438.380239955
2089.773558345
1202.929020709
3611.439014360
2179.143588282
499.153233333
989.240433249
2361.580525526
2408.645925948
4214.848197068
2211.151669870
1869.835778160
1707.574058227
2293.424221231
1197.685883065
2748.061848494
1328.612886664
697.185113740
174.526621174
180.657643158
933.097013830
740.708156661
839.474546674
1956.864630656
2994.623808263
175.644975903
1584.673997564
1682.955686377
1283.883906004
2406.767382259
2179.148103307
426.538976189
2210.193285200
1859.120843967
1988.930456698
1350.051395073
311.989447998
1552.743595910
75.622413664
1425.565138784
839.200726331
640.577153568
1615.389492828
1476.885681640
1201.853904909
1729.571837769
1207.059876586
1772.888694733
3325.216426649
1901.598944989
488.296764640
2250.161747909
2469.062341766
2121.885788501
1949.630949909
1242.316681312
1159.224748534
965.655422696
2453.038161302
2228.972380966
1999.600330606
1387.350367758
2622.879485529
2292.841376982
733.681506077
1279.827231925
2589.480720624
1554.163700311
2620.649430710
3093.703594806
1246.825189843
1396.691937888
2623.792096650
2311.993420215
1861.800820605
2086.710848615
2280.357076680
1629.695241694
2952.187526876
1917.251123340
2403.973483896
1065.573158253
3074.335397415
2608.583105143
1686.052724956
2110.176315458
1926.444221377
3260.955907916
2547.834443534
1536.360214361
2527.997037382
1996.267121301
1636.371203903
1523.568838931
1760.278881015
103.380983997
3410.249726534
2978.544885141
1864.507110304
3696.543592616
2991.970996908
2107.467728233
1841.274041382
2947.478930012
3842.319664992
2372.029329631
2297.714748732
2779.895271514
1197.163825154
4831.103837199
1273.561417697
717.553829371
964.584888627
857.061760387
846.929796716
1137.448132021
1041.550817094
3167.420975934
4652.645253060
1768.383384833
2349.113351195
2676.225487024
7320.023025256
9969.564324133
4863.924913163
3607.100421730
6961.759226208
1290.083320819
180.752962466
1353.426312810
1887.789506968
1891.648406146
2226.051488814
1448.232830830
780.770512991
1450.528622946
2219.287091790
2398.382103566
2218.194937801
1040.677267143
1536.811721445
346.826496803
2213.615194852
1452.669283621
2398.816143898
2268.416305674
1855.240077360
749.547958153
2394.854275148
2005.311444990
1437.328616836
503.669386064
641.034218943
607.605885951
850.082460046
823.962146640
1080.361901249
1203.939622344
726.470781074
963.680140903
1349.351954911
103.907817601
261.319339502
171.798047427
159.545763389
460.160357462
454.061945227
510.641839235
1141.816544009
1556.694577969
1131.210661659
545.784603700
918.187893936
440.765916511
219.734069305
449.919118441
368.094987103
324.683301961
649.825194339
601.590298066
587.936409414
472.547553018
536.005208202
16.410937566
611.390120685
799.061247293
14.020095435
582.074978743
657.555717273
2234.884316106
1459.225428220
927.859932515
1454.084333498
148.242574237
1116.678605182
1432.643993702
2639.044640692
4395.886384898
469.958329137
2497.374026889
4.926670690
1752.560363857
794.097632121
2894.105322903
2140.578695962
4359.833020956
2592.722919661
3289.166398534
7207.509231884
3012.186618063
420.606686798
6567.004448931
6900.865187872
5411.925935841
3474.965136752
5455.388397278
11121.488866732
11621.259332737
10731.548429229
27280.970442236
14398.283611205
6507.259772964
3769.930248107
2195.879362964
1498.841419498
1336.066150024
1531.075066575
1038.510166365
2118.851616838
1069.170225699
1151.314011682
1386.214984458
2242.542740215
1958.108503515
1080.215978997
1590.350125784
823.071824290
2082.896173806
2029.459209158
847.136425586
386.222692995
1084.689445872
1423.191351972
1147.471822934
1716.893040046
1184.848620683
1226.369612319
1769.078756613
1578.460530172
534.283217589
2107.691373325
1306.981703203
799.066405457
1200.510374662
1026.536351633
825.724049105
1234.365601302
263.060473994
725.649649989
948.981982817
826.431210677
731.433508614
1013.398032786
459.596768416
184.766488384
1631.911945642
1304.633046930
1077.467938529
1733.286166875
73.036205892
927.470467265
1399.265132050
36.927064283
342.247568002
1562.122599445
1750.095242725
1749.777427872
1852.745509065
1093.459016432
811.413618081
34.197055799
1472.081882045
1655.413003980
821.891898352
1093.562202854
604.040501894
1561.644513896
1707.660550036
1158.643461132
1443.059647521
1085.599893919
2342.547516402
1505.952531544
894.227638446
456.015610129
1251.553507732
1631.530444381
304.603488121
1506.872054217
965.597741579
1070.590730998
1705.879640130
1325.922080718
1610.407200026
257.993969424
1789.056548686
1722.680630850
1556.232740897
1404.014897544
1365.427861953
119.066355319
1244.420673117
1205.286135913
258.237780792
2326.241028700
182.773673756
2165.702358124
1188.320716653
2017.702618226
2324.052389122
2217.534781324
36.749465597
1290.875028901
1403.958375335
1429.924953730
1797.144294324
503.114588703
2509.801755479
1238.612065751
1825.420952987
1483.367271262
1102.704312475
1227.985794045
139.730284039
1488.723911148
388.897679771
483.737324177
446.697923742
666.494857059
348.471520986
559.113013876
321.206745654
424.792075414
365.947960573
471.392178720
355.745536035
1060.983402279
922.404205964
479.748055989
504.540581486
1192.920765013
634.002093466
582.105407879
525.172086185
841.703390307
659.861172653
608.160248800
444.290657730
268.201252930
592.088238756
141.850221714
10.295005172
383.181876667
575.405883079
1471.371716078
555.752610381
860.852786468
1436.950577393
1148.448189910
935.778241346
1418.294899352
1043.352897186
90.165921544
1460.803661360
628.800970690
890.821285223
624.457824095
314.916930795
1060.091935585
494.722029773
651.156361631
295.335726920
491.733840019
953.666693698
1065.439499620
2518.616822293
3310.369911845
3046.559596460
2599.120819526
2503.663401582
34.354740561
4407.919045600
2259.019766637
2583.279190056
2582.922241353
2417.670798072
2489.418807864
1210.897452372
279.278748310
1944.733867044
2807.418658239
1868.267923632
219.039999149
2284.901373052
4734.743874982
2779.342298637
111.511525425
3547.764219733
4344.869030106
3414.310834909
956.293847739
2921.623699596
2891.552244603
4436.432906983
974.623227716
781.856368332
1175.055832546
751.832857617
668.523108048
974.738740160
890.340987206
1534.459185030
476.933876732
655.400442981
176.637383126
3172.744719063
19.658750772
3189.765192740
2648.183894837
487.104940688