# vtk DataFile Version 1.0
 Mesh produced by HydroAlgorithmics' AlgoMesh 2.0.15.
ASCII
 
DATASET UNSTRUCTURED_GRID
POINTS 21852 DOUBLE
225809.152550565 6213.975239839 0.000000000
225751.712894749 6653.428651296 0.000000000
225510.235581801 6591.741419192 0.000000000
225338.873204149 6291.569243320 0.000000000
225411.578062735 6043.591467267 0.000000000
225809.152550565 6213.975239839 -10.000000000
225751.712894749 6653.428651296 -10.000000000
225510.235581801 6591.741419192 -10.000000000
225338.873204149 6291.569243320 -10.000000000
225411.578062735 6043.591467267 -10.000000000
225809.152550565 6213.975239839 0.000000000
226100.999948268 6171.376136767 0.000000000
226245.564564033 6406.172590440 0.000000000
225925.136827986 6754.292134450 0.000000000
225773.457960446 6685.532047167 0.000000000
225751.712894749 6653.428651296 0.000000000
225809.152550565 6213.975239839 -10.000000000
226100.999948268 6171.376136767 -10.000000000
226245.564564033 6406.172590440 -10.000000000
225925.136827986 6754.292134450 -10.000000000
225773.457960446 6685.532047167 -10.000000000
225751.712894749 6653.428651296 -10.000000000
226514.374272491 6542.411383855 0.000000000
226486.424846636 6708.454381982 0.000000000
226233.034637311 6897.140139839 0.000000000
225982.428104871 6876.953647835 0.000000000
225925.136827986 6754.292134450 0.000000000
226245.564564033 6406.172590440 0.000000000
226514.374272491 6542.411383855 -10.000000000
226486.424846636 6708.454381982 -10.000000000
226233.034637311 6897.140139839 -10.000000000
225982.428104871 6876.953647835 -10.000000000
225925.136827986 6754.292134450 -10.000000000
226245.564564033 6406.172590440 -10.000000000
223910.445053653 5682.982335817 0.000000000
223635.378142946 5944.796375721 0.000000000
223276.245648756 6021.679832378 0.000000000
223235.227040101 5995.443779979 0.000000000
223178.461761503 5884.932709465 0.000000000
223288.729410232 5197.780331887 0.000000000
223848.424064539 5132.678481757 0.000000000
223910.445053653 5682.982335817 -10.000000000
223635.378142946 5944.796375721 -10.000000000
223276.245648756 6021.679832378 -10.000000000
223235.227040101 5995.443779979 -10.000000000
223178.461761503 5884.932709465 -10.000000000
223288.729410232 5197.780331887 -10.000000000
223848.424064539 5132.678481757 -10.000000000
225275.327733001 5013.614933352 0.000000000
224070.213264960 4844.944928532 0.000000000
223848.424064539 5132.678481757 0.000000000
223910.445053653 5682.982335817 0.000000000
224236.886151615 5877.004516038 0.000000000
224703.045986312 5870.682280804 0.000000000
225155.822804628 5467.350463116 0.000000000
225275.327733001 5013.614933352 -10.000000000
224070.213264960 4844.944928532 -10.000000000
223848.424064539 5132.678481757 -10.000000000
223910.445053653 5682.982335817 -10.000000000
224236.886151615 5877.004516038 -10.000000000
224703.045986312 5870.682280804 -10.000000000
225155.822804628 5467.350463116 -10.000000000
222739.820407303 5285.078862292 0.000000000
223099.958822385 5110.285028018 0.000000000
223288.729410232 5197.780331887 0.000000000
223178.461761503 5884.932709465 0.000000000
222780.611462373 5686.504189993 0.000000000
222739.820407303 5285.078862292 -10.000000000
223099.958822385 5110.285028018 -10.000000000
223288.729410232 5197.780331887 -10.000000000
223178.461761503 5884.932709465 -10.000000000
222780.611462373 5686.504189993 -10.000000000
223178.461761503 5884.932709465 0.000000000
223235.227040101 5995.443779979 0.000000000
222793.620508285 6197.504684896 0.000000000
222452.361380840 6048.631950819 0.000000000
222397.656073476 5951.153395365 0.000000000
222780.611462373 5686.504189993 0.000000000
223178.461761503 5884.932709465 -10.000000000
223235.227040101 5995.443779979 -10.000000000
222793.620508285 6197.504684896 -10.000000000
222452.361380840 6048.631950819 -10.000000000
222397.656073476 5951.153395365 -10.000000000
222780.611462373 5686.504189993 -10.000000000
222191.582156245 5476.506853180 0.000000000
222471.130281758 5216.664268706 0.000000000
222739.820407303 5285.078862292 0.000000000
222780.611462373 5686.504189993 0.000000000
222397.656073476 5951.153395365 0.000000000
222288.245056238 5897.876794442 0.000000000
222191.582156245 5476.506853180 -10.000000000
222471.130281758 5216.664268706 -10.000000000
222739.820407303 5285.078862292 -10.000000000
222780.611462373 5686.504189993 -10.000000000
222397.656073476 5951.153395365 -10.000000000
222288.245056238 5897.876794442 -10.000000000
221288.001778842 5400.934021158 0.000000000
221089.028627589 5193.369362206 0.000000000
220846.644490504 5299.793944853 0.000000000
220808.202194592 5531.381680782 0.000000000
220907.141127995 5684.159801675 0.000000000
221086.484478611 5743.596539182 0.000000000
221288.001778842 5400.934021158 -10.000000000
221089.028627589 5193.369362206 -10.000000000
220846.644490504 5299.793944853 -10.000000000
220808.202194592 5531.381680782 -10.000000000
220907.141127995 5684.159801675 -10.000000000
221086.484478611 5743.596539182 -10.000000000
220907.141127995 5684.159801675 0.000000000
220808.202194592 5531.381680782 0.000000000
220579.374937561 5653.104968485 0.000000000
220663.384235518 5812.531314468 0.000000000
220777.003630434 5852.511246561 0.000000000
220907.141127995 5684.159801675 -10.000000000
220808.202194592 5531.381680782 -10.000000000
220579.374937561 5653.104968485 -10.000000000
220663.384235518 5812.531314468 -10.000000000
220777.003630434 5852.511246561 -10.000000000
220846.644490504 5299.793944853 0.000000000
220808.202194592 5531.381680782 0.000000000
220579.374937561 5653.104968485 0.000000000
220530.067079890 5644.328892612 0.000000000
220422.488107446 5548.834189388 0.000000000
220417.578370434 5516.708310288 0.000000000
220626.662999461 5221.605224882 0.000000000
220846.644490504 5299.793944853 -10.000000000
220808.202194592 5531.381680782 -10.000000000
220579.374937561 5653.104968485 -10.000000000
220530.067079890 5644.328892612 -10.000000000
220422.488107446 5548.834189388 -10.000000000
220417.578370434 5516.708310288 -10.000000000
220626.662999461 5221.605224882 -10.000000000
220246.238597101 5386.165578827 0.000000000
220136.962318112 5434.242711740 0.000000000
220166.375311102 5643.623857075 0.000000000
220263.794172289 5668.531319861 0.000000000
220422.488107446 5548.834189388 0.000000000
220417.578370434 5516.708310288 0.000000000
220246.238597101 5386.165578827 -10.000000000
220136.962318112 5434.242711740 -10.000000000
220166.375311102 5643.623857075 -10.000000000
220263.794172289 5668.531319861 -10.000000000
220422.488107446 5548.834189388 -10.000000000
220417.578370434 5516.708310288 -10.000000000
220136.962318112 5434.242711740 0.000000000
220166.375311102 5643.623857075 0.000000000
220162.428889008 5645.258253501 0.000000000
220034.921928556 5623.498011908 0.000000000
219988.632356860 5530.696830325 0.000000000
220017.877120484 5418.025656607 0.000000000
220136.962318112 5434.242711740 -10.000000000
220166.375311102 5643.623857075 -10.000000000
220162.428889008 5645.258253501 -10.000000000
220034.921928556 5623.498011908 -10.000000000
219988.632356860 5530.696830325 -10.000000000
220017.877120484 5418.025656607 -10.000000000
225130.594793621 6489.949250868 0.000000000
225259.321447529 6733.539695356 0.000000000
225396.481973335 6741.040110926 0.000000000
225510.235581801 6591.741419192 0.000000000
225338.873204149 6291.569243320 0.000000000
225130.594793621 6489.949250868 -10.000000000
225259.321447529 6733.539695356 -10.000000000
225396.481973335 6741.040110926 -10.000000000
225510.235581801 6591.741419192 -10.000000000
225338.873204149 6291.569243320 -10.000000000
224703.045986312 5870.682280804 0.000000000
225155.822804628 5467.350463116 0.000000000
225411.578062735 6043.591467267 0.000000000
225338.873204149 6291.569243320 0.000000000
225130.594793621 6489.949250868 0.000000000
224825.813519875 6555.306767461 0.000000000
224675.354445195 6373.967378868 0.000000000
224703.045986312 5870.682280804 -10.000000000
225155.822804628 5467.350463116 -10.000000000
225411.578062735 6043.591467267 -10.000000000
225338.873204149 6291.569243320 -10.000000000
225130.594793621 6489.949250868 -10.000000000
224825.813519875 6555.306767461 -10.000000000
224675.354445195 6373.967378868 -10.000000000
224236.886151615 5877.004516038 0.000000000
224111.883445048 6344.363287695 0.000000000
224195.596513133 6459.269522728 0.000000000
224367.341331622 6491.474423438 0.000000000
224675.354445195 6373.967378868 0.000000000
224703.045986312 5870.682280804 0.000000000
224236.886151615 5877.004516038 -10.000000000
224111.883445048 6344.363287695 -10.000000000
224195.596513133 6459.269522728 -10.000000000
224367.341331622 6491.474423438 -10.000000000
224675.354445195 6373.967378868 -10.000000000
224703.045986312 5870.682280804 -10.000000000
224236.886151615 5877.004516038 0.000000000
223910.445053653 5682.982335817 0.000000000
223635.378142946 5944.796375721 0.000000000
223839.118612470 6330.657214105 0.000000000
224111.883445048 6344.363287695 0.000000000
224236.886151615 5877.004516038 -10.000000000
223910.445053653 5682.982335817 -10.000000000
223635.378142946 5944.796375721 -10.000000000
223839.118612470 6330.657214105 -10.000000000
224111.883445048 6344.363287695 -10.000000000
223276.245648756 6021.679832378 0.000000000
223286.764534180 6204.777846378 0.000000000
223519.439356873 6533.401272762 0.000000000
223549.320112743 6543.646625365 0.000000000
223735.794987193 6492.712109755 0.000000000
223839.118612470 6330.657214105 0.000000000
223635.378142946 5944.796375721 0.000000000
223276.245648756 6021.679832378 -10.000000000
223286.764534180 6204.777846378 -10.000000000
223519.439356873 6533.401272762 -10.000000000
223549.320112743 6543.646625365 -10.000000000
223735.794987193 6492.712109755 -10.000000000
223839.118612470 6330.657214105 -10.000000000
223635.378142946 5944.796375721 -10.000000000
223549.320112743 6543.646625365 0.000000000
223519.439356873 6533.401272762 0.000000000
223329.638465031 6692.442816182 0.000000000
[...]
CELL_DATA 1822
SCALARS LAYER  int  1
LOOKUP_TABLE default
1
1
1
1
1
1
1
1
1
1
1
1
1
1
1
1
1
1
1
1
1
1
1
1
1
1
1
1
1
1
1
1
1
1
1
1
1
1
1
1
1
1
1
1
1
1
1
1
1
1
1
1
1
1
1
1
1
1
1
1
1
1
1
1
1
1
1
1
1
1
1
1
1
1
1
1
1
1
1
1
1
1
1
1
1
1
1
1
1
1
1
1
1
1
1
1
1
1
1
1
1
1
1
1
1
1
1
1
1
1
1
1
1
1
1
1
1
1
1
1
1
1
1
1
1
1
1
1
1
1
1
1
1
1
1
1
1
1
1
1
1
1
1
1
1
1
1
1
1
1
1
1
1
1
1
1
1
1
1
1
1
1
1
1
1
1
1
1
1
1
1
1
1
1
1
1
1
1
1
1
1
1
1
1
1
1
1
1
1
1
1
1
1
1
1
1
1
1
1
1
1
1
1
1
1
1
1
1
1
1
1
1
1
1
1
1
1
1
1
1
1
1
1
1
1
1
1
1
1
1
1
1
1
1
1
1
1
1
1
1
1
1
1
1
1
1
1
1
1
1
1
1
1
1
1
1
1
1
1
1
1
1
1
1
1
1
1
1
1
1
1
1
1
1
1
1
1
1
1
1
1
1
1
1
1
1
1
1
1
1
1
1
1
1
1
1
1
1
1
1
1
1
1
1
1
1
1
1
1
1
1
1
1
1
1
1
1
1
1
1
1
1
1
1
1
1
1
1
1
1
1
1
1
1
1
1
1
1
1
1
1
1
1
1
1
1
1
1
1
1
1
1
1
1
1
1
1
1
1
1
1
1
1
1
1
1
1
1
1
1
1
1
1
1
1
1
1
1
1
1
1
1
1
1
1
1
1
1
1
1
1
1
1
1
1
1
1
1
1
1
1
1
1
1
1
1
1
1
1
1
1
1
1
1
1
1
1
1
1
1
1
1
1
1
1
1
1
1
1
1
1
1
1
1
1
1
1
1
1
1
1
1
1
1
1
1
1
1
1
1
1
1
1
1
1
1
1
1
1
1
1
1
1
1
1
1
1
1
1
1
1
1
1
1
1
1
1
1
1
1
1
1
1
1
1
1
1
1
1
1
1
1
1
1
1
1
1
1
1
1
1
1
1
1
1
1
1
1
1
1
1
1
1
1
1
1
1
1
1
1
1
1
1
1
1
1
1
1
1
1
1
1
1
1
1
1
1
1
1
1
1
1
1
1
1
1
1
1
1
1
1
1
1
1
1
1
1
1
1
1
1
1
1
1
1
1
1
1
1
1
1
1
1
1
1
1
1
1
1
1
1
1
1
1
1
1
1
1
1
1
1
1
1
1
1
1
1
1
1
1
1
1
1
1
1
1
1
1
1
1
1
1
1
1
1
1
1
1
1
1
1
1
1
1
1
1
1
1
1
1
1
1
1
1
1
1
1
1
1
1
1
1
1
1
1
1
1
1
1
1
1
1
1
1
1
1
1
1
1
1
1
1
1
1
1
1
1
1
1
1
1
1
1
1
1
1
1
1
1
1
1
1
1
1
1
1
1
1
1
1
1
1
1
1
1
1
1
1
1
1
1
1
1
1
1
1
1
1
1
1
1
1
1
1
1
1
1
1
1
1
1
1
1
1
1
1
1
1
1
1
1
1
1
1
1
1
1
1
1
1
1
1
1
1
1
1
1
1
1
1
1
1
1
1
1
1
1
1
1
1
1
1
1
1
1
1
1
1
1
1
1
1
1
1
1
1
1
1
1
1
1
1
1
1
1
1
1
1
1
1
1
1
1
1
1
1
1
1
1
1
1
1
1
1
1
1
1
1
1
1
1
1
1
1
1
1
1
1
1
1
1
1
1
1
1
1
1
1
1
1
1
1
1
1
1
1
1
1
1
1
1
1
1
1
1
1
1
1
1
1
1
1
1
1
1
1
1
1
1
1
1
1
1
1
1
1
1
1
1
1
1
1
1
1
1
1
1
1
1
1
1
1
1
1
1
1
1
1
1
1
1
1
1
1
1
1
1
1
1
1
1
1
1
1
1
1
1
1
1
1
1
1
1
1
1
1
1
1
1
1
1
1
1
1
1
1
1
1
1
1
1
1
1
1
1
1
1
1
1
1
1
1
1
1
1
1
1
1
1
1
1
1
1
1
1
1
1
1
1
1
1
1
1
1
1
1
1
1
1
1
1
1
1
1
1
1
1
1
1
1
1
1
1
1
1
1
1
1
1
1
1
1
1
1
1
1
1
1
1
1
1
1
1
1
1
1
1
1
1
1
1
1
1
1
1
1
1
1
1
1
1
1
1
1
1
1
1
1
1
1
1
1
1
1
1
1
1
1
1
1
1
1
1
1
1
1
1
1
1
1
1
1
1
1
1
1
1
1
1
1
1
1
1
1
1
1
1
1
1
1
1
1
1
1
1
1
1
1
1
1
1
1
1
1
1
1
1
1
1
1
1
1
1
1
1
1
1
1
1
1
1
1
1
1
1
1
1
1
1
1
1
1
1
1
1
1
1
1
1
1
1
1
1
1
1
1
1
1
1
1
1
1
1
1
1
1
1
1
1
1
1
1
1
1
1
1
1
1
1
1
1
1
1
1
1
1
1
1
1
1
1
1
1
1
1
1
1
1
1
1
1
1
1
1
1
1
1
1
1
1
1
1
1
1
1
1
1
1
1
1
1
1
1
1
1
1
1
1
1
1
1
1
1
1
1
1
1
1
1
1
1
1
1
1
1
1
1
1
1
1
1
1
1
1
1
1
1
1
1
1
1
1
1
1
1
1
1
1
1
1
1
1
1
1
1
1
1
1
1
1
1
1
1
1
1
1
1
1
1
1
1
1
1
1
1
1
1
1
1
1
1
1
1
1
1
1
1
1
1
1
1
1
1
1
1
1
1
1
1
1
1
1
1
1
1
1
1
1
1
1
1
1
1
1
1
1
1
1
1
1
1
1
1
1
1
1
1
1
1
1
1
1
1
1
1
1
1
1
1
1
1
1
1
1
1
1
1
1
1
1
1
1
1
1
1
1
1
1
1
1
1
1
1
1
1
1
1
1
1
1
1
1
1
1
1
1
1
1
1
1
1
1
1
1
1
1
1
1
1
1
1
1
1
1
1
1
1
1
1
1
1
1
1
1
1
1
1
1
1
1
1
1
1
1
1
1
1
1
1
1
1
1
1
1
1
1
1
1
1
1
1
1
1
1
1
1
1
1
1
1
1
1
1
1
1
1
1
1
1
1
1
1
1
1
1
1
1
1
1
1
1
1
1
1
1
1
1
1
1
1
1
1
1
1
1
1
1
1
1
1
1
1
1
1
1
1
1
1
1
1
1
1
1
1
1
1
1
1
1
1
1
1
1
1
1
1
1
1
1
1
1
1
1
1
1
1
1
1
1
1
1
1
1
1
1
1
1
1
1
1
1
1
1
1
1
1
1
1
1
1
1
1
1
1
1
1
1
1
1
1
1
1
1
1
1
1
1
1
1
1
1
1
1
1
1
1
1
1
1
1
1
1
1
1
1
1
1
1
1
1
1
1
1
1
1
1
1
1
1
1
1
1
1
1
1
1
1
1
1
1
1
1
1
1
1
1
1
1
1
1
1
1
1
1
1
1
1
1
1
1
1
1
1
1
1
1
1
1
1
1
1
1
1
1
1
1
1
1
1
1
1
1
1
1
1
1
1
1
1
1
1
1
1
1
1
1
1
1
1
1
1
1
1
1
1
1
1
1
1
1
1
1
1
1
1
1
1
1
1
1
1
1
1
1
1
1
1
1
1
1
1
1
1
1
1
1
1
1
1
1
1
1
1
1
1
1
1
1
1
1
1
1
1
1
1
1
1
1
1
1
1
1
1
1
1
1
1
1
1
1
1
1
1
1
1
1
1
1
1
1
1
1
1
1
1
1
1
1
1
1
1
1
1
1
1
1
1
1
1
1
1
1
1
1
1
1
1
1
1
1
1
1
1
1
1
1
1
1
1
1
1
1
1
1
1
1
1
1
1
1
1
1
1
1
1
1
1
1
1
1
1
1
1
1
1
1
1
1
1
1
1
1
1
1
1
1
1
1
1
1
1
1
1
1
1
1
1
1
1
1
1
1
SCALARS 2D_MESH_CELL_INDEX  int  1
LOOKUP_TABLE default
1
2
3
4
5
6
7
8
9
10
11
12
13
14
15
16
17
18
19
20
21
22
23
24
25
26
27
28
29
30
31
32
33
34
35
36
37
38
39
40
41
42
43
44
45
46
47
48
49
50
51
52
53
54
55
56
57
58
59
60
61
62
63
64
65
66
67
68
69
70
71
72
73
74
75
76
77
78
79
80
81
82
83
84
85
86
87
88
89
90
91
92
93
94
95
96
97
98
99
100
101
102
103
104
105
106
107
108
109
110
111
112
113
114
115
116
117
118
119
120
121
122
123
124
125
126
127
128
129
130
131
132
133
134
135
136
137
138
139
140
141
142
143
144
145
146
147
148
149
150
151
152
153
154
155
156
157
158
159
160
161
162
163
164
165
166
167
168
169
170
171
172
173
174
175
176
177
178
179
180
181
182
183
184
185
186
187
188
189
190
191
192
193
194
195
196
197
198
199
200
201
202
203
204
205
206
207
208
209
210
211
212
213
214
215
216
217
218
219
220
221
222
223
224
225
226
227
228
229
230
231
232
233
234
235
236
237
238
239
240
241
242
243
244
245
246
247
248
249
250
251
252
253
254
255
256
257
258
259
260
261
262
263
264
265
266
267
268
269
270
271
272
273
274
275
276
277
278
279
280
281
282
283
284
285
286
287
288
289
290
291
292
293
294
295
296
297
298
299
300
301
302
303
304
305
306
307
308
309
310
311
312
313
314
315
316
317
318
319
320
321
322
323
324
325
326
327
328
329
330
331
332
333
334
335
336
337
338
339
340
341
342
343
344
345
346
347
348
349
350
351
352
353
354
355
356
357
358
359
360
361
362
363
364
365
366
367
368
369
370
371
372
373
374
375
376
377
378
379
380
381
382
383
384
385
386
387
388
389
390
391
392
393
394
395
396
397
398
399
400
401
402
403
404
405
406
407
408
409
410
411
412
413
414
415
416
417
418
419
420
421
422
423
424
425
426
427
428
429
430
431
432
433
434
435
436
437
438
439
440
441
442
443
444
445
446
447
448
449
450
451
452
453
454
455
456
457
458
459
460
461
462
463
464
465
466
467
468
469
470
471
472
473
474
475
476
477
478
479
480
481
482
483
484
485
486
487
488
489
490
491
492
493
494
495
496
497
498
499
500
501
502
503
504
505
506
507
508
509
510
511
512
513
514
515
516
517
518
519
520
521
522
523
524
525
526
527
528
529
530
531
532
533
534
535
536
537
538
539
540
541
542
543
544
545
546
547
548
549
550
551
552
553
554
555
556
557
558
559
560
561
562
563
564
565
566
567
568
569
570
571
572
573
574
575
576
577
578
579
580
581
582
583
584
585
586
587
588
589
590
591
592
593
594
595
596
597
598
599
600
601
602
603
604
605
606
607
608
609
610
611
612
613
614
615
616
617
618
619
620
621
622
623
624
625
626
627
628
629
630
631
632
633
634
635
636
637
638
639
640
641
642
643
644
645
646
647
648
649
650
651
652
653
654
655
656
657
658
659
660
661
662
663
664
665
666
667
668
669
670
671
672
673
674
675
676
677
678
679
680
681
682
683
684
685
686
687
688
689
690
691
692
693
694
695
696
697
698
699
700
701
702
703
704
705
706
707
708
709
710
711
712
713
714
715
716
717
718
719
720
721
722
723
724
725
726
727
728
729
730
731
732
733
734
735
736
737
738
739
740
741
742
743
744
745
746
747
748
749
750
751
752
753
754
755
756
757
758
759
760
761
762
763
764
765
766
767
768
769
770
771
772
773
774
775
776
777
778
779
780
781
782
783
784
785
786
787
788
789
790
791
792
793
794
795
796
797
798
799
800
801
802
803
804
805
806
807
808
809
810
811
812
813
814
815
816
817
818
819
820
821
822
823
824
825
826
827
828
829
830
831
832
833
834
835
836
837
838
839
840
841
842
843
844
845
846
847
848
849
850
851
852
853
854
855
856
857
858
859
860
861
862
863
864
865
866
867
868
869
870
871
872
873
874
875
876
877
878
879
880
881
882
883
884
885
886
887
888
889
890
891
892
893
894
895
896
897
898
899
900
901
902
903
904
905
906
907
908
909
910
911
912
913
914
915
916
917
918
919
920
921
922
923
924
925
926
927
928
929
930
931
932
933
934
935
936
937
938
939
940
941
942
943
944
945
946
947
948
949
950
951
952
953
954
955
956
957
958
959
960
961
962
963
964
965
966
967
968
969
970
971
972
973
974
975
976
977
978
979
980
981
982
983
984
985
986
987
988
989
990
991
992
993
994
995
996
997
998
999
1000
1001
1002
1003
1004
1005
1006
1007
1008
1009
1010
1011
1012
1013
1014
1015
1016
1017
1018
1019
1020
1021
1022
1023
1024
1025
1026
1027
1028
1029
1030
1031
1032
1033
1034
1035
1036
1037
1038
1039
1040
1041
1042
1043
1044
1045
1046
1047
1048
1049
1050
1051
1052
1053
1054
1055
1056
1057
1058
1059
1060
1061
1062
1063
1064
1065
1066
1067
1068
1069
1070
1071
1072
1073
1074
1075
1076
1077
1078
1079
1080
1081
1082
1083
1084
1085
1086
1087
1088
1089
1090
1091
1092
1093
1094
1095
1096
1097
1098
1099
1100
1101
1102
1103
1104
1105
1106
1107
1108
1109
1110
1111
1112
1113
1114
1115
1116
1117
1118
1119
1120
1121
1122
1123
1124
1125
1126
1127
1128
1129
1130
1131
1132
1133
1134
1135
1136
1137
1138
1139
1140
1141
1142
1143
1144
1145
1146
1147
1148
1149
1150
1151
1152
1153
1154
1155
1156
1157
1158
1159
1160
1161
1162
1163
1164
1165
1166
1167
1168
1169
1170
1171
1172
1173
1174
1175
1176
1177
1178
1179
1180
1181
1182
1183
1184
1185
1186
1187
1188
1189
1190
1191
1192
1193
1194
1195
1196
1197
1198
1199
1200
1201
1202
1203
1204
1205
1206
1207
1208
1209
1210
1211
1212
1213
1214
1215
1216
1217
1218
1219
1220
1221
1222
1223
1224
1225
1226
1227
1228
1229
1230
1231
1232
1233
1234
1235
1236
1237
1238
1239
1240
1241
1242
1243
1244
1245
1246
1247
1248
1249
1250
1251
1252
1253
1254
1255
1256
1257
1258
1259
1260
1261
1262
1263
1264
1265
1266
1267
1268
1269
1270
1271
1272
1273
1274
1275
1276
1277
1278
1279
1280
1281
1282
1283
1284
1285
1286
1287
1288
1289
1290
1291
1292
1293
1294
1295
1296
1297
1298
1299
1300
1301
1302
1303
1304
1305
1306
1307
1308
1309
1310
1311
1312
1313
1314
1315
1316
1317
1318
1319
1320
1321
1322
1323
1324
1325
1326
1327
1328
1329
1330
1331
1332
1333
1334
1335
1336
1337
1338
1339
1340
1341
1342
1343
1344
1345
1346
1347
1348
1349
1350
1351
1352
1353
1354
1355
1356
1357
1358
1359
1360
1361
1362
1363
1364
1365
1366
1367
1368
1369
1370
1371
1372
1373
1374
1375
1376
1377
1378
1379
1380
1381
1382
1383
1384
1385
1386
1387
1388
1389
1390
1391
1392
1393
1394
1395
1396
1397
1398
1399
1400
1401
1402
1403
1404
1405
1406
1407
1408
1409
1410
1411
1412
1413
1414
1415
1416
1417
1418
1419
1420
1421
1422
1423
1424
1425
1426
1427
1428
1429
1430
1431
1432
1433
1434
1435
1436
1437
1438
1439
1440
1441
1442
1443
1444
1445
1446
1447
1448
1449
1450
1451
1452
1453
1454
1455
1456
1457
1458
1459
1460
1461
1462
1463
1464
1465
1466
1467
1468
1469
1470
1471
1472
1473
1474
1475
1476
1477
1478
1479
1480
1481
1482
1483
1484
1485
1486
1487
1488
1489
1490
1491
1492
1493
1494
1495
1496
1497
1498
1499
1500
1501
1502
1503
1504
1505
1506
1507
1508
1509
1510
1511
1512
1513
1514
1515
1516
1517
1518
1519
1520
1521
1522
1523
1524
1525
1526
1527
1528
1529
1530
1531
1532
1533
1534
1535
1536
1537
1538
1539
1540
1541
1542
1543
1544
1545
1546
1547
1548
1549
1550
1551
1552
1553
1554
1555
1556
1557
1558
1559
1560
1561
1562
1563
1564
1565
1566
1567
1568
1569
1570
1571
1572
1573
1574
1575
1576
1577
1578
1579
1580
1581
1582
1583
1584
1585
1586
1587
1588
1589
1590
1591
1592
1593
1594
1595
1596
1597
1598
1599
1600
1601
1602
1603
1604
1605
1606
1607
1608
1609
1610
1611
1612
1613
1614
1615
1616
1617
1618
1619
1620
1621
1622
1623
1624
1625
1626
1627
1628
1629
1630
1631
1632
1633
1634
1635
1636
1637
1638
1639
1640
1641
1642
1643
1644
1645
1646
1647
1648
1649
1650
1651
1652
1653
1654
1655
1656
1657
1658
1659
1660
1661
1662
1663
1664
1665
1666
1667
1668
1669
1670
1671
1672
1673
1674
1675
1676
1677
1678
1679
1680
1681
1682
1683
1684
1685
1686
1687
1688
1689
1690
1691
1692
1693
1694
1695
1696
1697
1698
1699
1700
1701
1702
1703
1704
1705
1706
1707
1708
1709
1710
1711
1712
1713
1714
1715
1716
1717
1718
1719
1720
1721
1722
1723
1724
1725
1726
1727
1728
1729
1730
1731
1732
1733
1734
1735
1736
1737
1738
1739
1740
1741
1742
1743
1744
1745
1746
1747
1748
1749
1750
1751
1752
1753
1754
1755
1756
1757
1758
1759
1760
1761
1762
1763
1764
1765
1766
1767
1768
1769
1770
1771
1772
1773
1774
1775
1776
1777
1778
1779
1780
1781
1782
1783
1784
1785
1786
1787
1788
1789
1790
1791
1792
1793
1794
1795
1796
1797
1798
1799
1800
1801
1802
1803
1804
1805
1806
1807
1808
1809
1810
1811
1812
1813
1814
1815
1816
1817
1818
1819
1820
1821
1822
SCALARS AREA  float  1
LOOKUP_TABLE default
187550.077676
186785.743490
176512.445974
494260.461381
1106627.843163
291838.677850
242623.666595
297042.985050
168614.006700
60489.759777
115745.713916
51569.780927
29673.959455
98609.421480
531780.652712
296924.385678
256969.303806
220283.795560
60186.087071
193276.127474
110349.366221
163408.308069
78020.280705
66079.638926
94750.489738
79682.618258
105667.850193
77839.274568
54695.733541
209714.555445
142086.762068
1271624.983284
446876.749524
91797.222598
109700.026945
81408.602485
64969.413722
45159.948347
43024.338684
60856.170915
62934.579563
106727.514072
114019.809301
2791432.523148
1885466.812494
1024351.539365
597113.657373
453388.917445
486977.251647
397473.563968
2918876.099503
170135.066469
21634.307353
48934.031445
32760.579196
17056.336796
18295.476940
28206.177381
33077.605167
43440.955394
12946.709521
25533.412090
115419.161335
60365.522854
19264.871058
64294.106242
66243.845274
226515.043515
360793.627643
221129.580022
59644.718090
28146.889732
38246.353774
52022.917521
23882.048695
17921.861470
14868.030545
122657.956164
151560.708349
95551.868061
124554.361189
78648.725964
33290.371864
42983.198852
59738.236271
45413.948938
35485.109506
101999.758172
86749.456473
45577.868136
63250.979105
61665.936297
53785.559841
53399.577980
41524.222870
53014.636204
51236.997473
118051.997150
32270.290639
18484.654324
303400.227367
403958.802942
381556.048352
1814334.835075
4347605.598186
3077623.618441
82367.299647
31665.805154
55596.628682
66195.168824
39338.462692
39564.899803
57357.908121
58267.297850
51532.476441
59195.952187
60388.675375
9529.406597
24992.796667
21597.404550
11110.693711
10958.479849
2270.856371
1053.785930
483.619685
1231.820824
564.121796
372.428240
751.093788
187659.186131
146874.045757
134511.349427
257379.642194
210481.471497
450136.716030
411633.184838
381472.307565
5952420.709079
2948404.121653
2061954.990799
1043269.852948
1216330.043340
2090923.110498
128630.095254
119192.125692
160988.512673
21206.676785
59584.794066
58370.814481
14210.743968
10956.203930
134105.774083
12325.213810
11747.521572
11979.841186
9287.459163
8854.085931
10191.465126
4859.625349
4487.088681
27076.228842
54058.636220
83556.385742
212280.613604
91723.694501
21850.206565
24273.905274
36045.835575
37646.037808
19468.118112
42257.905910
27690.388148
33562.887426
20975.367610
185069.870197
107842.174678
63224.483824
30771.254716
28070.770238
25510.239273
39508.285570
34161.966477
16540.362949
16226.617572
19526.642719
84085.909419
58406.242080
48023.148769
92464.224959
66210.454276
78090.956021
31731.997693
28542.534039
41343.439992
65463.179586
44770.648662
82218.989792
92909.079101
129940.478176
89867.598373
57750.594278
41173.976111
61029.596797
82225.025235
73204.993941
6271.838862
195705.419041
111506.059318
30783.139637
1079491.526462
383105.780158
2440813.739888
3706965.661008
22749.374854
52769.895472
35816.061187
45553.821504
72313.887279
85729.026763
91646.164992
67225.526520
114010.402650
7731.762614
4353.492895
22973.956638
19741.534642
11115.213071
11848.102893
20263.321520
444.248660
439.948093
16215.468333
4648.526434
1335.729770
836.209322
2424.123084
525.242104
603.144150
1705.141650
952.749660
87811.273638
123217.544742
31206.196571
82430.436366
62260.792223
256271.677658
196267.244595
381471.727753
1060363.597044
666556.620340
2254143.470910
4671339.494910
3928154.018601
2539934.129570
124397.662486
118345.130998
42550.282329
45998.984174
70598.128363
27033.045769
12493.970474
13141.815848
200658.530365
14477.262223
8702.838059
12726.714589
7708.110588
10254.462198
26202.083969
17282.747923
15338.578314
68091.741364
82244.989870
36257.527180
35929.771382
15118.782470
19037.443524
42964.582700
20021.884809
122294.562609
41789.532382
25353.896846
245900.736412
172640.015081
102615.677761
8027.088038
51898.865166
41197.549947
58334.070431
65909.250138
25190.162640
26045.543487
17478.886832
27124.535472
48066.416842
75506.225737
53049.777215
53096.028277
70925.545702
51776.530833
76054.425757
70817.506136
51064.899310
121616.196164
151323.463101
92842.259373
54255.586241
41042.435755
96015.155381
105044.636123
67037.354205
106897.887871
134943.115294
166776.145064
111264.703886
148597.151950
135580.924460
141683.964061
10796.944567
21493.005494
176516.184476
88979.030727
1326150.100358
493754.822753
1089518.104639
38279.678767
73157.355114
75736.614870
101571.190300
87317.582428
80357.854934
82638.638174
15625.480802
10097.129781
31391.168844
27258.140231
718.679402
1639.281816
29696.580435
8251.582363
2652.355164
1261.842977
8085.697351
1938.676783
6417.838711
3018.826100
44374.672425
98379.804254
204385.563636
107816.211630
175344.473537
397192.080642
550203.627985
367113.825044
2001056.839355
5098890.148387
3540317.931775
64791.991501
54796.424247
71327.275168
60319.106271
19590.058896
38802.743559
17015.427224
18080.785396
43431.037180
158460.203516
16617.944088
28019.979963
21078.634289
18274.970520
35793.091268
15157.415913
15625.149092
39187.923252
34345.500258
37362.858250
90720.369901
49884.501124
30896.162769
22981.381567
33341.836007
27772.946034
19372.880412
16820.063867
90006.356874
21178.527075
92038.254809
37702.327922
94385.918699
81598.338041
48566.965194
5620.639605
2965.138401
15921.773128
9758.399738
5029.345715
5882.803490
13868.414991
18291.291010
25139.721355
22216.970369
4935.774593
13207.801589
105878.893695
82633.004942
206534.585459
68660.646547
36290.027649
43656.485887
54355.932913
183194.762218
193979.224246
131046.694694
160636.166870
12612.242983
22425.373087
208763.482453
165136.565782
76963.420890
64903.775452
23303.141431
138523.894128
189208.063905
160417.481262
223371.336376
139064.906405
94165.129939
208689.368923
13874.337007
123046.687469
72797.320063
111547.683326
175972.392020
127458.028892
28988.419127
54017.027841
247312.575576
505096.540069
57653.304280
36181.624259
68187.353007
69025.689974
61321.404605
41090.666082
26787.386564
92293.545781
58714.934330
42516.099052
30197.509316
56674.109827
5276.166408
17347.452768
5379.879866
28991.301774
13511.008198
11879.978945
42220.604849
58819.567958
55681.223854
51777.107501
102736.450168
42583.486297
162653.148850
253666.442658
245905.320304
868705.860514
990421.984760
699866.595924
3066552.525908
2190556.452705
10812.214714
6401.056671
12265.297446
39359.377319
66074.138680
61095.008754
78350.065531
55091.710995
38816.155816
30596.504385
47419.498987
24634.349216
47841.689173
18082.647095
10671.175100
8582.774990
28859.745583
32461.447282
25089.058753
14169.721914
10982.273115
12519.027930
16360.545790
26202.436116
33042.968891
29213.302878
30466.153360
35231.266901
48216.273250
25531.307967
34036.376128
27474.261207
39136.296839
28158.891705
31863.392610
32492.005417
3663.722808
17005.586757
17865.702154
46703.549185
25348.291427
48030.026585
24744.538471
28747.742762
31042.697837
59386.412393
47197.359359
24865.266425
25334.571591
41391.894409
2421.603970
15436.461275
6641.663049
2349.107624
1370.721559
920.392416
2110.517683
1151.220822
36103.370040
15692.787745
9636.415156
3665.668430
3382.938675
4813.864233
5170.580062
46710.266716
42910.951304
13289.073250
49045.305730
327137.924036
359205.600078
166027.472780
145464.651073
369455.630833
259046.156429
212342.082463
77951.962785
24326.389049
7783.242200
8359.671339
9600.918332
8168.222035
10760.552882
112689.044882
124545.744398
40203.649366
19125.667956
29855.899090
31465.207693
11925.414174
63223.111160
60004.710799
106454.655762
204386.627803
111389.867599
47332.608149
88513.658078
22877.992279
10400.124803
49008.122728
37389.712027
85496.997017
38450.187558
98490.269911
76051.355020
19019.631000
78551.968191
99736.380153
202252.974555
132744.880047
53657.512755
33483.141976
39581.418760
20224.261536
27957.742333
70265.280958
48175.733065
47219.517972
33973.399019
29114.936272
64391.542179
41044.035034
47209.136328
128576.069645
99593.478252
34980.336241
59181.175320
56772.609595
54612.198481
42485.221784
226159.616526
131605.911582
618346.807193
592805.271945
2738271.686496
1738810.062654
2031472.353849
6778.132725
10170.971082
9668.568623
12008.800533
15990.491040
112315.684254
127252.958091
117669.142255
34325.102533
39438.907996
109657.170812
44917.765965