# vtk DataFile Version 1.0
 Lateral Connection Group-based connection lines produced by HydroAlgorithmics' AlgoMesh 2.0.15.
ASCII
 
DATASET POLYDATA
POINTS 10690 DOUBLE
204393.496111924 10744.324979861 -5.000000000
204375.323671400 10848.332137642 -5.000000000
204393.496111924 10744.324979861 -5.000000000
204472.065368708 10742.240083843 -5.000000000
204393.496111924 10744.324979861 -5.000000000
204363.744006749 10687.461553688 -5.000000000
217751.363556051 5138.854349865 -5.000000000
217698.888469296 5153.358660986 -5.000000000
217751.363556051 5138.854349865 -5.000000000
217813.489269735 5239.794460242 -5.000000000
217751.363556051 5138.854349865 -5.000000000
217796.576704556 5089.041556182 -5.000000000
213259.926442915 12113.619671160 -5.000000000
213221.582540045 12135.028704476 -5.000000000
213259.926442915 12113.619671160 -5.000000000
213260.010815299 12064.097829991 -5.000000000
213259.926442915 12113.619671160 -5.000000000
213307.577530367 12140.438697000 -5.000000000
227229.607269080 7008.003140230 -5.000000000
227010.842440319 6934.892010167 -5.000000000
227229.607269080 7008.003140230 -5.000000000
227241.105585318 7245.396323564 -5.000000000
227229.607269080 7008.003140230 -5.000000000
227478.348916542 6991.657450616 -5.000000000
220083.849377631 5780.853192385 -5.000000000
220159.080146388 5833.386795064 -5.000000000
220083.849377631 5780.853192385 -5.000000000
220053.581610377 5787.557969994 -5.000000000
220083.849377631 5780.853192385 -5.000000000
220102.614534314 5673.887600081 -5.000000000
204473.993798049 10412.581642796 -5.000000000
204502.220487460 10424.581448745 -5.000000000
204473.993798049 10412.581642796 -5.000000000
204458.507183147 10345.105618502 -5.000000000
204473.993798049 10412.581642796 -5.000000000
204364.800848869 10447.555553035 -5.000000000
204596.627524987 10691.346566394 -5.000000000
204580.587829497 10768.913893961 -5.000000000
204596.627524987 10691.346566394 -5.000000000
204498.138581908 10684.664201713 -5.000000000
204596.627524987 10691.346566394 -5.000000000
204644.202466885 10643.271930385 -5.000000000
228541.823335872 8048.336436720 -5.000000000
228515.952890228 8106.263144554 -5.000000000
228541.823335872 8048.336436720 -5.000000000
228514.242475161 8006.331639988 -5.000000000
228541.823335872 8048.336436720 -5.000000000
228588.127471711 8043.747524469 -5.000000000
206503.738987401 8837.727903765 -5.000000000
206407.599013974 8958.624408046 -5.000000000
206503.738987401 8837.727903765 -5.000000000
206685.190573056 8987.200326566 -5.000000000
206503.738987401 8837.727903765 -5.000000000
206534.504840005 8794.909629000 -5.000000000
205161.214103026 9593.939037999 -5.000000000
205060.896596821 9236.396394550 -5.000000000
205161.214103026 9593.939037999 -5.000000000
205316.777994339 9646.353332608 -5.000000000
205161.214103026 9593.939037999 -5.000000000
205022.115150855 9695.580532792 -5.000000000
204183.328056825 9789.297109369 -5.000000000
204383.167685919 9870.463157836 -5.000000000
204183.328056825 9789.297109369 -5.000000000
204015.024817231 9914.062500000 -5.000000000
204183.328056825 9789.297109369 -5.000000000
204123.924379403 9513.217034852 -5.000000000
204560.957454255 11878.753371486 -5.000000000
204541.657506643 11818.781654908 -5.000000000
204560.957454255 11878.753371486 -5.000000000
204655.592207573 11856.806538581 -5.000000000
204560.957454255 11878.753371486 -5.000000000
204526.267920239 12021.452552049 -5.000000000
204391.738084652 10013.512177590 -5.000000000
204332.490418476 10103.214398520 -5.000000000
204391.738084652 10013.512177590 -5.000000000
204524.191106814 10073.612890769 -5.000000000
204391.738084652 10013.512177590 -5.000000000
204383.167685919 9870.463157836 -5.000000000
204498.138581908 10684.664201713 -5.000000000
204472.065368708 10742.240083843 -5.000000000
204498.138581908 10684.664201713 -5.000000000
204507.199868383 10625.371803927 -5.000000000
204723.877682679 11203.080224671 -5.000000000
204738.716323081 11096.337996148 -5.000000000
204723.877682679 11203.080224671 -5.000000000
204625.746672853 11244.675997231 -5.000000000
204723.877682679 11203.080224671 -5.000000000
204774.495282778 11233.149433833 -5.000000000
204679.022616327 10841.524865779 -5.000000000
204752.345926550 10830.258711786 -5.000000000
204679.022616327 10841.524865779 -5.000000000
204580.587829497 10768.913893961 -5.000000000
204679.022616327 10841.524865779 -5.000000000
204592.182548659 10987.928016911 -5.000000000
204364.800848869 10447.555553035 -5.000000000
204348.357158713 10362.217503267 -5.000000000
204364.800848869 10447.555553035 -5.000000000
204359.668392229 10521.993868979 -5.000000000
204472.065368708 10742.240083843 -5.000000000
204524.621387901 10805.424604630 -5.000000000
205817.534894780 10689.007773655 -5.000000000
205714.272044862 10374.989288645 -5.000000000
205817.534894780 10689.007773655 -5.000000000
206101.305183841 10690.799244131 -5.000000000
205817.534894780 10689.007773655 -5.000000000
205690.385545502 10844.289928477 -5.000000000
205832.897132841 9530.489306862 -5.000000000
205799.410458420 9645.777299260 -5.000000000
205832.897132841 9530.489306862 -5.000000000
205783.315747310 9425.409939302 -5.000000000
205832.897132841 9530.489306862 -5.000000000
205974.881026207 9581.546549623 -5.000000000
204628.629517628 10600.266504287 -5.000000000
204574.961440972 10566.408551707 -5.000000000
204628.629517628 10600.266504287 -5.000000000
204644.202466885 10643.271930385 -5.000000000
204628.629517628 10600.266504287 -5.000000000
204726.153854581 10501.601500216 -5.000000000
204697.386493798 10435.259205131 -5.000000000
204740.688519344 10318.227547232 -5.000000000
204697.386493798 10435.259205131 -5.000000000
204623.637096391 10428.887039260 -5.000000000
204697.386493798 10435.259205131 -5.000000000
204726.153854581 10501.601500216 -5.000000000
204497.067631705 10215.204287982 -5.000000000
204528.793550145 10187.519652429 -5.000000000
204497.067631705 10215.204287982 -5.000000000
204538.019479534 10301.614567766 -5.000000000
204497.067631705 10215.204287982 -5.000000000
204437.827961174 10225.230484570 -5.000000000
205045.076430388 11830.519561407 -5.000000000
205142.816816036 11820.117537271 -5.000000000
205045.076430388 11830.519561407 -5.000000000
204978.983239618 11702.719559917 -5.000000000
205045.076430388 11830.519561407 -5.000000000
204974.093179339 11911.084287823 -5.000000000
204507.682024517 11333.663700487 -5.000000000
204459.097300117 11260.962936847 -5.000000000
204507.682024517 11333.663700487 -5.000000000
204597.698003834 11318.973108520 -5.000000000
204507.682024517 11333.663700487 -5.000000000
204453.022113356 11406.326240481 -5.000000000
204924.011496089 11538.427483294 -5.000000000
205021.396784945 11589.573325233 -5.000000000
204924.011496089 11538.427483294 -5.000000000
204804.592974704 11616.424006514 -5.000000000
204924.011496089 11538.427483294 -5.000000000
204926.130039016 11452.084257485 -5.000000000
204696.111185275 11545.837718581 -5.000000000
204696.297124378 11484.397309728 -5.000000000
204696.111185275 11545.837718581 -5.000000000
204585.182533191 11626.245744623 -5.000000000
204696.111185275 11545.837718581 -5.000000000
204745.007229784 11612.138523796 -5.000000000
204524.621387901 10805.424604630 -5.000000000
204436.053875926 10911.522462528 -5.000000000
204524.621387901 10805.424604630 -5.000000000
204580.587829497 10768.913893961 -5.000000000
204804.592974704 11616.424006514 -5.000000000
204745.007229784 11612.138523796 -5.000000000
204804.592974704 11616.424006514 -5.000000000
204870.425959768 11701.721613379 -5.000000000
204594.883318419 11768.496172063 -5.000000000
204607.360189453 11710.797789681 -5.000000000
204594.883318419 11768.496172063 -5.000000000
204664.363239136 11807.669291860 -5.000000000
204594.883318419 11768.496172063 -5.000000000
204541.657506643 11818.781654908 -5.000000000
204757.351562500 11844.127929688 -5.000000000
204683.810045027 11878.970766199 -5.000000000
204757.351562500 11844.127929688 -5.000000000
204808.314046939 11909.218179983 -5.000000000
204757.351562500 11844.127929688 -5.000000000
204770.557072248 11786.775257544 -5.000000000
207287.373229340 10137.809595306 -5.000000000
207214.153895177 10338.318969737 -5.000000000
207287.373229340 10137.809595306 -5.000000000
206868.814713052 9835.805644979 -5.000000000
207287.373229340 10137.809595306 -5.000000000
207526.008435749 9948.417991337 -5.000000000
205784.042777837 11867.243414782 -5.000000000
205912.834234279 11846.321540060 -5.000000000
205784.042777837 11867.243414782 -5.000000000
205666.341439065 11777.695193270 -5.000000000
205784.042777837 11867.243414782 -5.000000000
205781.997225650 11952.999334398 -5.000000000
204622.382397116 11442.428724127 -5.000000000
204645.137553743 11377.097405405 -5.000000000
204622.382397116 11442.428724127 -5.000000000
204480.667063738 11465.556641570 -5.000000000
204622.382397116 11442.428724127 -5.000000000
204696.297124378 11484.397309728 -5.000000000
204644.202466885 10643.271930385 -5.000000000
204785.072186696 10690.368601961 -5.000000000
206617.036315367 12178.951683049 -5.000000000
206519.945910925 12157.978445725 -5.000000000
206617.036315367 12178.951683049 -5.000000000
206702.751679634 12035.857088613 -5.000000000
206617.036315367 12178.951683049 -5.000000000
206698.950217369 12217.582084752 -5.000000000
204732.990578996 11757.624870437 -5.000000000
204770.557072248 11786.775257544 -5.000000000
204732.990578996 11757.624870437 -5.000000000
204664.363239136 11807.669291860 -5.000000000
204732.990578996 11757.624870437 -5.000000000
204705.874047329 11683.166724118 -5.000000000
204745.007229784 11612.138523796 -5.000000000
204705.874047329 11683.166724118 -5.000000000
205162.699207186 10387.439497812 -5.000000000
205092.381807672 10505.308819392 -5.000000000
205162.699207186 10387.439497812 -5.000000000
205111.022692226 10212.209816696 -5.000000000
205162.699207186 10387.439497812 -5.000000000
205355.753822535 10437.353104045 -5.000000000
[...]
CELL_DATA 5345
SCALARS INTERFACE_AREA  float  1
LOOKUP_TABLE default
1416.875447981
1246.653649023
1416.875447981
1558.701097903
867.642266264
1558.701097903
676.940905876
662.032210849
676.940905876
4533.864079832
3286.874111188
4533.864079832
1249.690323375
1691.231605116
1249.690323375
1570.245148088
1171.262816999
1149.197631166
1274.443642685
761.708157979
1274.443642685
822.114282978
1183.439221420
822.114282978
3661.208632576
1987.747859662
3661.208632576
4630.621719022
5325.205182157
4709.249361224
3438.398692045
4070.117611518
3718.680476336
1534.736475038
833.241000324
1534.736475038
2654.153207336
1800.990252508
2964.160323514
1088.431437708
1088.431437708
2017.287486614
1350.491450695
2535.261432636
2927.286848278
2263.944031832
1959.315596079
1553.745009702
1553.745009702
1246.653649023
3866.311144148
4193.597546183
4712.795984595
1892.021411486
1774.697208234
1892.021411486
1762.172330821
1918.537171457
1144.713611306
1535.146103487
1459.399733234
1535.146103487
1492.870744182
810.511206627
1492.870744182
2727.458258020
1978.968713569
2727.458258020
1517.879626192
1258.195642079
1517.879626192
2107.234644790
1562.680121703
2642.609804508
2082.128542788
1306.914687172
2082.128542788
1246.653649023
1596.113900736
2082.128542788
1562.680121703
1407.892544628
833.241000324
1407.892544628
690.687309665
716.504253111
1068.821019897
9577.990206487
5200.094133783
9577.990206487
3321.355374063
2276.326591199
4034.892710237
1319.596442886
1258.195642079
1319.596442886
1274.443642685
1847.464634091
1186.628165429
1847.464634091
1246.110959699
690.687309665
1246.110959699
1742.679732038
4082.071017812
3074.038141420
5129.781810904
1353.778569596
1215.878333405
1353.778569595
2196.817361631
1570.638670188
2196.817361631
1547.277502017
2557.777629925
1246.110959699
1562.680121703
1365.462813833
1743.632108021
1519.631964429
2690.191038099
2276.326591199
1235.866011374
1638.751430512
1600.832646198
1638.751430512
2578.971535581
2715.087370939
1671.949045160
1371.343464096
810.511206627
1378.697233415
1144.713611306
1041.614542890
2893.110004593
2798.991652519
2551.477833966
3310.841142931
1797.525914527
3310.841142931
1814.769294802
2373.273971516
2017.386742275
2727.458258020
2892.940284150
2892.940284150
432.554021670
1749.884642477
1563.674522945
1876.538774791
2420.592367861
3074.038141420
1692.593398144
3074.038141420
4385.745536698
4773.024045966
5985.848555714
1319.720478639
1121.008243801
2017.287486614
1959.315596079
1493.218323764
810.699914957
1493.218323764
2149.529356546
1167.025101967
2149.529356546
796.715997200
1205.571777187
3438.398692045
1549.370530998
1876.538774791
1185.827245118
1876.538774791
796.715997200
5023.672228202
3985.476134153
5765.585609462
2414.309194470
2423.338401092
3096.328775672
2090.044483902
2501.615970350
2851.683165992
3875.814578809
4216.066946186
3189.406500280
3661.208632576
2087.530784796
4983.539228991
3094.431663323
2815.895504787
3278.923917325
2054.201069202
1948.170887201
2675.807899752
2198.864149977
1856.340786906
3165.394610665
2196.471341160
1915.409153276
1272.168564168
833.241000324
2803.727938220
3684.378212710
1799.335360028
1840.362691983
1840.362691983
2811.282719538
2811.282719538
3623.156027826
5405.926137944
1039.916275442
1167.025101967
1748.302366581
2574.039712086
1748.302366581
2596.626186719
1672.230588942
2596.626186719
1836.894701462
1698.886282579
1836.894701462
1133.996097618
1586.762040555
1133.996097618
2087.530784796
2087.530784796
2255.359692182
1759.808816656
2088.693634720
3301.599385093
2491.753441021
3301.599385093
1223.779122222
664.415654779
1223.779122222
7171.480459624
3893.548924635
7171.480459624
1892.021411486
1561.827425924
1549.493317789
1561.827425924
3295.080319283
1863.435495450
2392.531018219
563.311070581
305.833534016
563.311070581
1628.561897395
1532.597113958
1628.561897395
2190.582680514
1847.464634091
1857.899842988
1008.693250504
1857.899842988
1556.596714513
2255.722157258
1556.596714513
1475.540158638
1445.111237604
1475.540158638
2457.009703985
1333.962707509
2457.009703985
2888.673771487
3314.864822144
2093.771559417
2088.693634720
2093.771559416
3253.623338551
2380.976502074
3508.480800322
2130.138725995
1825.363747077
2130.138725994
2262.829416470
2262.829416470
1641.371919182
1641.371919182
1628.561897395
2228.317631376
1872.176787862
3652.183484617
3294.105645862
2054.201069202
1227.447923966
666.407525100
1227.447923966
1708.754239672
1565.254068896
1708.754239672
2392.531018219
1611.664086928
3091.525897204
1502.811191654
815.908086501
1502.811191654
2392.531018218
2904.651651282
3388.785076573
958.407334089
905.119776962
958.407334089
1233.528092537
975.391625077
1233.528092537
1233.528092537
1048.274630205
1517.821143878
1366.685698229
1397.500782354
2574.039712086
2715.087370939
1474.078549461
2715.087370939
832.735382403
563.311070581
2512.160859263
1363.905440050
2512.160859263
563.311070581
1287.578497648
1586.762040555
1167.978679541
3020.227742012
2098.439816469
3020.227742012
1842.309574177
1558.655799185
1842.309574178
2940.035275768
2255.722157258
1288.068891017
1168.176365433
1288.068891017
449.235720213
3727.215791217
2902.496568148
4444.642911980
1978.643465149
1074.247525227
1978.643465149
1509.343858393
1481.880668679
2275.351069695
2414.309194470
1475.540158638
2175.778895843
1259.387985465
1450.747523379
2228.317631376
1450.747523379
1134.288472623
1134.274831043
1831.310665524
1256.438960496
1256.438960496
804.544461420
2003.492299181
1942.030880270
2003.492299181
3910.028141986
2959.366835095
3910.028141986
3351.628510316
3974.049747898
1857.899842988
1857.899842988
1493.289007408
1418.837255576
1493.289007408
1298.955860730
2392.531018218
1764.698582299
4327.612933385
3857.826416636
4327.612933385
3354.674554997
2673.548469712
3730.915286070
2149.986110515
2052.139670098
3332.102316441
1664.777700832
2484.017494656
1707.752299339
1396.402607829
1256.438960496
7890.488206864
4283.913488386
7890.488206864
1837.545677628
1950.330571726
1191.643348212
2324.047381375
1392.295201226
2324.047381375
1788.149482929
1058.875854572
2387.935374118
1436.780894202
2387.935374118
1469.453427378
797.797448404
1469.453427378
1956.729716177
1248.595772688
2096.953916379
1496.675271664
893.666352219
1175.012264334
1869.139533096
1014.795516777
1869.139533096
2327.029376892
2744.539245029
2030.430014702
1102.363541921
2030.430014702
2660.711697898
1444.556842682
2660.711697898
1175.012264334
1956.729716177
1191.643348212
1191.643348212
1978.643465149
2652.150253723
2459.245174232
1335.176391744
2459.245174232
1565.254068896
1565.254068896
877.561134983
844.753880105
1349.685732548
844.753880105
1363.905440050
1666.870803234
2565.898959456
1729.867580835
1729.867580835
1175.012264334
1176.763946332
989.329464909
1311.146281908
1446.431869852
810.621318667
1446.431869852
1860.630528095
1670.083779124
1860.630528095
2279.668749409
1561.827425925
2279.668749409
1118.881029170
1446.431869852
409.355990283
222.248053904
409.355990283
3387.095298632
2675.405978335
2086.194540007
2255.055587618
1898.996160488
3351.181253421
3117.362549813
3351.181253421
1134.288472623
615.829282067
1134.288472623
3422.697371087
2948.207118055
4339.479016504
2672.114237459
2672.114237459
2958.205723889
2958.205723889
1137.723811392
1761.073120435
1530.277447848
1785.762297599
1519.357639593
1958.616295751
1519.357639593
1950.114369285
1950.114369285
1486.479477521
1531.283574643
1486.479477521
2051.937900849
2958.205723889
1459.606147140
958.407334089
980.734906137
1256.306791305
700.953334385
2942.866569547
1655.008572912
673.731588246
365.783176246
673.731588246
1860.630528095
3919.955442126
2128.226993329
3919.955442126
1257.765798265
682.867742421
1257.765798265
1057.844923228
1057.844923228
700.953334385
1257.765798265
940.490464169
1639.257761201
1639.257761201
1110.271015330
1143.705019162
1199.488788729
987.665632563
536.224630774
987.665632563
2000.269954843
982.675163098
2136.680696822
2032.092155007
2865.990946251
950.581829778
950.581829778
2448.964296864
2290.281173381
2448.964296864
1257.354564304
848.094281320
1100.833453558
1496.381256828
1100.833453557
1057.844923228
987.665632563
987.665632563
2093.527047226
2974.382242666
2992.486410489
4327.612933385
1775.139707112
1775.139707112
1257.765798265
3779.439489561
3779.439489561
1276.943279667
768.357357331
1276.943279667
2016.051199673
1625.046430684
1611.351298043
1431.377591538
1276.943279667
1431.377591538
1100.833453557
1070.760031367
3033.056394646
1901.406091307
2469.409876969
2749.160214026
1492.577419019
2749.160214026
1209.715140311
1496.381256828
1209.715140311
1730.267904480
1105.401903484
2011.889101928
1675.970322957
2011.889101928
1778.219178197
989.329464908
1948.431711811
1948.431711811
1778.219178197
1388.751110631
2557.531409720
1340.695024561
1842.820095526
1340.695024561
2931.983172716
1853.234937524
2931.983172716
1001.364577176
1001.364577176
810.621318667
844.753880105
1986.227781631
1519.357639593
2575.568016650
2174.306489053
1894.181909505
3857.442475070
3269.608259476
3301.599385093
1102.053595711
1036.357396454
1102.053595711
1134.288472623
798.384245528
789.580207060
810.621318667
3528.360269028
3685.152434760
3528.360269028
1141.099293543
1141.099293543
1014.795516777
956.123968109
1014.795516776
1036.357396454
1267.483646957
1036.357396454
1496.381256828
812.417138437
1496.381256828
2149.986110515
3369.690941976
1490.420424116
809.180875865
1490.420424116
3136.781308312
2768.740139191
4522.210069340
1268.694010316
2097.616009466
1955.233480737
882.272191676
922.739076636
882.272191676
1593.036362912
2037.267660368
1593.036362912
1464.595775601
1343.479621832
1464.595775601
889.248711311
1209.715140311
2364.628460328
2755.140267179
2364.628460328
2245.242459831
2183.913440883
2245.242459831
1757.557883582
1782.848397859
967.946228307
1782.848397859
1167.717212037
1167.717212037
3927.193519451
2271.402645964
4524.824683376
1776.307495139
1085.997604705
1001.364577176
4764.842801302
3488.870645760
3909.069095840
1885.053476309
1093.493576422
1434.856139831
670.608513363
604.999917086
1033.121649386
1035.111017999
1434.856139831
5946.744076252
5062.263753661
8863.215922082
2365.333989346
2105.051453306
2365.333989346
1434.856139831
1093.590416239
1467.381599620
1093.590416239
3197.940177103
2149.870414200
3197.940177103
2475.381711792
1343.937260412
2475.381711792
1490.007355607
808.956612207
1490.007355607
1923.171013942
1923.171013942
1377.954541968
2291.520772689
1114.341996835
1114.341996835
1484.168818213
1410.861713540
1510.573864478
1379.854196922
717.276800509
1314.188510205
793.289074742
882.272191676
2029.859128543
2035.322891846
2854.700454443
1011.833659443
1326.380097262
1011.833659443
2084.848251194
2364.628460328
972.258435674
768.150589976
972.258435674
2280.897914467
1238.347879782
2280.897914467
1418.902052360
919.731977348
808.956612207
1318.540621945
1203.480677012
972.258435674
635.727412058
1110.470862615
1124.861800590
850.735306468
2305.813449665
1251.875052564
2305.813449666
950.581829778
539.228250270
768.150589976
2647.128711317
2259.454804511
3908.643931178
626.890874805
932.422713618
626.890874805
626.890874805
2218.279085123
2840.045635999
1625.046430684
850.577643068
649.257554640
850.577643068
837.527419798
1054.068829144
1333.966388969
2870.020429501
2931.983172716
2691.787292693
1738.676582374
2529.764318326
720.119901382
672.256720038
1384.612998267
1738.676582374
2150.830409868
1167.731471425
2150.830409868
941.008426798
717.276800509
941.008426798
4036.847438269
2353.188579886
4485.773638978
1681.709769076
913.035920519
1681.709769076
1114.341996835
670.608513363
2093.527047226
3226.624410085
1093.590416239
994.216091854
837.527419798
1046.678112809
2748.137990328
2183.913440883
2925.490956010
3050.295078082
1587.575349724
2356.713332313
1531.861491344
1510.869982109
1510.869982109
3751.834946367
3384.871381018
5853.871485713
2535.128528484
1376.375075058
2535.128528484
1510.869982109
2245.242459831
2012.716133270
1145.120087370
914.449453843
11492.839519131
13877.799931229
1235.185673207
1235.185673207
890.848357701
837.527419798
890.848357701
670.608513363
890.848357701
913.035920519
1279.509678979
2356.713332313
1692.303021331
1692.303021331
2866.042843552
3018.136029199
2654.810106456
2184.453468388
1291.189399407
2184.453468388
2427.037498158
1317.690160938
2427.037498158
777.639287158
682.558501038
1611.351298043
1750.865123176
1611.351298043
718.496223072
682.558501038
718.496223072
1485.471778584
1429.789327862
1485.471778584
486.467002974
449.007650913
1484.168818213
805.786746358
1156.850841365
827.021737000
1156.850841365
718.496223072
1689.234759930
1689.234759930
1549.466727602
1521.220245329
2870.882076323
1738.676582374
2656.574119899
713.500830056
387.374741552
713.500830056
914.449453843
905.119776962
914.449453843
5167.604185714
3874.392064648
5143.274112946
1804.257254633
1804.257254633
2235.663244683
1659.431643714
2281.693284200
2570.039550913
2541.969528016
1924.560787207
1787.855338583
970.664602677
1787.855338583
1782.847957697
1624.373882274
2894.212779784
2171.180593182
1376.375075058
2364.559207931
1897.646996358
1897.646996358
2098.921842311
2148.046805783
1388.824789847
1378.199060790
1779.278276611
1578.342910870
1525.272961311
1578.342910870
1906.558407975
1906.558407975
1733.231988541
941.008426798
1733.231988541
1442.310463785
1442.310463785
2301.789423516
2110.976808905
2542.993922432
1813.547664641
1683.189754503
1388.824789847
1683.189754503
3742.416355020
3705.674093400
4242.243580669
1831.234540361
1794.294224683
3257.861228664
2967.935285670
3257.861228664
1437.274420231
2472.265168553
2204.811844319
1785.895600049
2448.964296864
431.881195135
393.331553185
431.881195135
2209.323826775
2309.896319797
3605.039788017
3120.359559590
2247.944559913
3120.359559590
1376.375075058
1388.824789847
754.022450101
1871.824478248
2383.119079999
3316.561450520
1448.350737406
1725.367902534
1448.350737406
2381.441927807
1623.042460015
881.184193474
1623.042460015
1885.966192512
1623.042460015
1885.966192512
4302.057896557
4295.981676756
4190.126184022
1156.850841365
2165.867401885
1175.895373485
2165.867401885
2562.026755466
1611.313054974
2562.026755466
3120.359559590
1740.359012866
1488.100466336
1740.359012866
2803.831192076
2609.982460765
1731.606250541
2064.188386652
2472.265168553
2951.543224819
4272.285543756
3807.519677868
2659.543291910
3807.519677868
2044.781800809
1088.785342367
1740.359012866
2529.133662813
2207.903050559
2529.735056768
2042.217900719
1897.646996358
3044.670033893
1307.836784628
1211.001742248
1307.836784628
1753.464703703
1607.218262437
3252.159528396
5143.274112946
3252.159528396
1289.112977570
1868.215622520
1289.112977570
1337.671271161
1418.883645171
873.061802133
1418.883645171
1790.001683344
971.829898794
1790.001683344
2383.168292535
2736.072421239
1559.872892315
3174.214554901
3252.159528396
2715.096143649
1670.674543035
3259.106542550
1659.431643715
3056.486983298
1063.640038958
1059.036266766
1063.640038958
1868.215622520
1014.293906119
1868.215622520
3742.416355020
1134.965065897
993.869090885
1134.965065897
1554.965630315
1145.512122396
2095.744665538
1859.688175146
1378.613900286
1994.790760242
827.021737000
1059.036266766
603.356138254
1059.036266766
2529.133662813
1373.120335270
1198.932395284
1520.720264361
1198.932395284
1240.393879999
1289.112977570
818.814228077
444.551620151
818.814228077
1248.481418195
867.183917780
796.245237970
867.183917780
3473.738216448
4501.623712261
521.963413761
664.501680101
521.963413761
1084.027710573
880.103851186
1084.027710573
1297.183709155
1461.767292057
1297.183709155
818.814228077
818.814228077
941.212949497
683.913871752
941.212949497
1996.657469713
1084.027710573
1996.657469713
5480.514499248
6465.236504442
5480.514499248
481.906254388
574.078621259
1131.036989554
1297.183709155
942.467354420
794.494419599
942.467354420
1378.613900286
1037.976589221
3546.766245620
3807.519677868
1089.583248254
641.881523359
2967.863474053
1611.316059902
2967.863474053
748.177384878
406.201379022
748.177384878
603.356138254
603.356138254
1378.613900286
1167.414153352
1694.211237363
508.185686734
854.401306994
783.266359947
649.330187385
783.266359948
675.368425206
528.128539666
335.875697348
3616.403722400
3386.432701641
3642.635673439
2515.412450797
1365.670798095
2515.412450797
4571.460436687
2481.942880202
4571.460436687
335.875697348
182.354043574
335.875697348
1871.442181256
2676.832315147
1605.646168116
1519.472085367
1681.106186559
879.529595017
879.529595017
2178.957790006
1355.915856853
1175.343899946
1091.675785017
1343.170568234
1092.106760181
1355.915856853
1092.106760181
1492.338022753
810.221980858
1492.338022753
1819.046459137
1418.883645171
2154.177572638
2142.520535563
2154.177572638
2221.949513219
1846.342548730
2221.949513219
2359.170815898
2914.130230369
2359.170815898
378.106163728
494.426827377
318.580628069
1030.197541307
559.316106584
1030.197541307
1097.126750311
921.879920909
1097.126750311
1145.443365232
2103.920775574
1355.915856853
1035.204633487
3616.403722400
3560.217773271
3844.234813906
2417.504775570
1312.514643554
2417.504775570
1826.936368323
1280.252119367
1826.936368323
1790.346985704
1149.024432747
1790.346985704
1594.001578617
1594.001578617
2097.215403995
1544.506536345
2889.574773848
3038.135901175
2769.374481695
3038.135901175
623.663839769
406.201379022
1594.001578617
1317.904247645
1073.149066965
1488.100466337
807.921321556
1488.100466337
1122.107424546
2419.112351784
1923.310999487
2947.011782915
2867.195461036
2947.011782914
1768.302328937
2062.675269011
1122.107424546
609.215932577
1122.107424546
1607.218262437
1720.324802123
1607.218262437
3146.156272060
2738.413670666
3146.156272059
1885.966192512
1772.603067891
794.494419599
1558.701097903
1550.703450141
1301.363383416
1567.651614736
1407.872752641
1362.255375095
1269.135960970
1362.255375095
1448.350737406
819.001115495
1798.309346802
1427.614041269
1242.086281495
1269.135960970
2090.582214213
1956.561972299
1062.259014177
1956.561972300
1624.994446407
1388.824789847
1624.994446407
1261.341444270
1091.225222277
1261.341444270
432.298436494
796.245237970
4898.580477257
3725.504368573
5295.016812862
2332.379615612
2274.908422289
2332.379615611
841.909809936
1073.149066965
2935.972141338
2935.972141338
775.081957829
755.040017956
775.081957829
1112.108395704
1605.646168116
1519.484571630
1681.128757981
6525.371646088
4008.470926102
4421.289926349
1242.086281495
1110.078607148
796.245237970
775.081957829
1638.127066182
889.373946266
1638.127066182
2229.841671570
1299.247512512
2229.841671570
3616.403722400
1963.422323141
1956.561972300
1956.561972299
1021.488909993
1723.805396024
1571.314888680
508.185686734
468.844600658
3423.324997893
2426.348701555
4172.150717915
1901.465175435
1604.648354897
1901.465175435
1623.042460015
1205.470327340
508.185686734
1261.341444270
1573.365394007
1573.365394007
1901.771520270
1445.373379612
1901.771520270
1871.824478248
1016.253230476
3827.037263947
2077.779742617
3827.037263947
1856.379349544
1587.950773621
1856.379349544
1628.538743933
1092.106760181
2639.432716126
1937.307089474
3571.531493687
2356.713332313
2356.713332313
871.739377443
2448.487513492
1691.231605116
918.205527364
2186.520398045
1826.936368323
2599.612864492
3746.576527420
3268.564686822
1425.471791714
2199.106143365
2334.703101963
2359.170815898
990.474323932
3430.998670738
3543.310229825
3430.998670738
1772.274737406
1355.915856853
2800.008610988
1906.031077197
1928.046273024
1968.581948605
1963.062693389
1968.581948605
2345.440441817
1273.389387511
2345.440441817
1608.081926087
1608.081926087
4182.051027237
2701.232754693
2540.019641083
1605.646168116
1587.335141250
2571.934045603
1250.849222244
1247.814307752
1250.849222244
1852.174361280
1695.949944963
2170.513050434
2914.130230369
4484.642870294
1649.222073160
2900.609627735
3649.475717270
2283.861498742
3696.914150020
1691.231605116
1203.620485051
1478.144938498
2521.357660448
2270.553792516
1478.144938498
1368.898578575
2639.432716126